 vasp.5.4.4.18Apr17-6-g9f103f2a35 (build Nov 15 2018 18:01:47) complex           
 executed on             LinuxGNU date 2019.10.17  13:51:47
 running on    8 total cores
 distrk:  each k-point on    8 cores,    1 groups
 distr:  one band on NCORES_PER_BAND=   4 cores,    2 groups


--------------------------------------------------------------------------------------------------------


 INCAR:
 POTCAR:    PAW_PBE H 15Jun2001                   
 POTCAR:    PAW_PBE C 08Apr2002                   
 POTCAR:    PAW_PBE O 08Apr2002                   
 POTCAR:    PAW_PBE H 15Jun2001                   
   VRHFIN =H: ultrasoft test                                                    
   LEXCH  = PE                                                                  
   EATOM  =    12.4884 eV,    0.9179 Ry                                         
                                                                                
   TITEL  = PAW_PBE H 15Jun2001                                                 
   LULTRA =        F    use ultrasoft PP ?                                      
   IUNSCR =        0    unscreen: 0-lin 1-nonlin 2-no                           
   RPACOR =    0.000    partial core radius                                     
   POMASS =    1.000; ZVAL   =    1.000    mass and valenz                      
   RCORE  =    1.100    outmost cutoff radius                                   
   RWIGS  =    0.700; RWIGS  =    0.370    wigner-seitz radius (au A)           
   ENMAX  =  250.000; ENMIN  =  200.000 eV                                      
   RCLOC  =    0.701    cutoff for local pot                                    
   LCOR   =        T    correct aug charges                                     
   LPAW   =        T    paw PP                                                  
   EAUG   =  400.000                                                            
   RMAX   =    1.123    core radius for proj-oper                               
   RAUG   =    1.200    factor for augmentation sphere                          
   RDEP   =    1.112    radius for radial grids                                 
   RDEPT  =    0.926    core radius for aug-charge                              
                                                                                
   Atomic configuration                                                         
    2 entries                                                                   
     n  l   j            E        occ.                                          
     1  0  0.50        -6.4927   1.0000                                         
     2  1  0.50        -3.4015   0.0000                                         
   Description                                                                  
     l       E           TYP  RCUT    TYP  RCUT                                 
     0     -6.4927494     23  1.100                                             
     0      6.8029130     23  1.100                                             
     1     -4.0817478     23  1.100                                             
  local pseudopotential read in
  atomic valenz-charges read in
  non local Contribution for L=           0  read in
    real space projection operators read in
  non local Contribution for L=           0  read in
    real space projection operators read in
  non local Contribution for L=           1  read in
    real space projection operators read in
    PAW grid and wavefunctions read in

   number of l-projection  operators is LMAX  =           3
   number of lm-projection operators is LMMAX =           5

 POTCAR:    PAW_PBE C 08Apr2002                   
   VRHFIN =C: s2p2                                                              
   LEXCH  = PE                                                                  
   EATOM  =   147.1560 eV,   10.8157 Ry                                         
                                                                                
   TITEL  = PAW_PBE C 08Apr2002                                                 
   LULTRA =        F    use ultrasoft PP ?                                      
   IUNSCR =        1    unscreen: 0-lin 1-nonlin 2-no                           
   RPACOR =    1.200    partial core radius                                     
   POMASS =   12.011; ZVAL   =    4.000    mass and valenz                      
   RCORE  =    1.500    outmost cutoff radius                                   
   RWIGS  =    1.630; RWIGS  =    0.863    wigner-seitz radius (au A)           
   ENMAX  =  400.000; ENMIN  =  300.000 eV                                      
   ICORE  =        2    local potential                                         
   LCOR   =        T    correct aug charges                                     
   LPAW   =        T    paw PP                                                  
   EAUG   =  644.873                                                            
   DEXC   =    0.000                                                            
   RMAX   =    1.529    core radius for proj-oper                               
   RAUG   =    1.300    factor for augmentation sphere                          
   RDEP   =    1.501    radius for radial grids                                 
   RDEPT  =    1.300    core radius for aug-charge                              
                                                                                
   Atomic configuration                                                         
    4 entries                                                                   
     n  l   j            E        occ.                                          
     1  0  0.50      -273.3789   2.0000                                         
     2  0  0.50       -13.7508   2.0000                                         
     2  1  0.50        -5.2854   2.0000                                         
     3  2  1.50        -5.4423   0.0000                                         
   Description                                                                  
     l       E           TYP  RCUT    TYP  RCUT                                 
     0    -13.7508458     23  1.200                                             
     0     -8.2022199     23  1.200                                             
     1     -5.2854383     23  1.500                                             
     1     34.0145650     23  1.500                                             
     2     -5.4423304      7  1.500                                             
  local pseudopotential read in
  partial core-charges read in
  partial kinetic energy density read in
  atomic valenz-charges read in
  non local Contribution for L=           0  read in
    real space projection operators read in
  non local Contribution for L=           0  read in
    real space projection operators read in
  non local Contribution for L=           1  read in
    real space projection operators read in
  non local Contribution for L=           1  read in
    real space projection operators read in
    PAW grid and wavefunctions read in

   number of l-projection  operators is LMAX  =           4
   number of lm-projection operators is LMMAX =           8

 POTCAR:    PAW_PBE O 08Apr2002                   
   VRHFIN =O: s2p4                                                              
   LEXCH  = PE                                                                  
   EATOM  =   432.3788 eV,   31.7789 Ry                                         
                                                                                
   TITEL  = PAW_PBE O 08Apr2002                                                 
   LULTRA =        F    use ultrasoft PP ?                                      
   IUNSCR =        1    unscreen: 0-lin 1-nonlin 2-no                           
   RPACOR =    1.200    partial core radius                                     
   POMASS =   16.000; ZVAL   =    6.000    mass and valenz                      
   RCORE  =    1.520    outmost cutoff radius                                   
   RWIGS  =    1.550; RWIGS  =    0.820    wigner-seitz radius (au A)           
   ENMAX  =  400.000; ENMIN  =  300.000 eV                                      
   ICORE  =        2    local potential                                         
   LCOR   =        T    correct aug charges                                     
   LPAW   =        T    paw PP                                                  
   EAUG   =  605.392                                                            
   DEXC   =    0.000                                                            
   RMAX   =    1.553    core radius for proj-oper                               
   RAUG   =    1.300    factor for augmentation sphere                          
   RDEP   =    1.550    radius for radial grids                                 
   RDEPT  =    1.329    core radius for aug-charge                              
                                                                                
   Atomic configuration                                                         
    4 entries                                                                   
     n  l   j            E        occ.                                          
     1  0  0.50      -514.6923   2.0000                                         
     2  0  0.50       -23.9615   2.0000                                         
     2  1  0.50        -9.0305   4.0000                                         
     3  2  1.50        -9.5241   0.0000                                         
   Description                                                                  
     l       E           TYP  RCUT    TYP  RCUT                                 
     0    -23.9615318     23  1.200                                             
     0     -9.5240782     23  1.200                                             
     1     -9.0304911     23  1.520                                             
     1      8.1634956     23  1.520                                             
     2     -9.5240782      7  1.500                                             
  local pseudopotential read in
  partial core-charges read in
  partial kinetic energy density read in
  kinetic energy density of atom read in
  atomic valenz-charges read in
  non local Contribution for L=           0  read in
    real space projection operators read in
  non local Contribution for L=           0  read in
    real space projection operators read in
  non local Contribution for L=           1  read in
    real space projection operators read in
  non local Contribution for L=           1  read in
    real space projection operators read in
    PAW grid and wavefunctions read in

   number of l-projection  operators is LMAX  =           4
   number of lm-projection operators is LMMAX =           8


 ----------------------------------------------------------------------------- 
|                                                                             |
|  ADVICE TO THIS USER RUNNING 'VASP/VAMP'   (HEAR YOUR MASTER'S VOICE ...):  |
|                                                                             |
|      You have a (more or less) 'large supercell' and for larger cells       |
|      it might be more efficient to use real space projection opertators     |
|      So try LREAL= Auto  in the INCAR   file.                               |
|      Mind:          For very  accurate calculation you might also keep the  |
|      reciprocal projection scheme          (i.e. LREAL=.FALSE.)             |
|                                                                             |
 ----------------------------------------------------------------------------- 

  PAW_PBE H 15Jun2001                   :
 energy of atom  1       EATOM=  -12.4884
 kinetic energy error for atom=    0.0002 (will be added to EATOM!!)
  PAW_PBE C 08Apr2002                   :
 energy of atom  2       EATOM= -147.1560
 kinetic energy error for atom=    0.0032 (will be added to EATOM!!)
  PAW_PBE O 08Apr2002                   :
 energy of atom  3       EATOM= -432.3788
 kinetic energy error for atom=    0.0091 (will be added to EATOM!!)


 POSCAR: Generated by cif2cell 1.2.11 from COD re
  positions in direct lattice
  No initial velocities read in
 exchange correlation table for  LEXCH =        8
   RHO(1)=    0.500       N(1)  =     2000
   RHO(2)=  100.500       N(2)  =     4000



--------------------------------------------------------------------------------------------------------


 ion  position               nearest neighbor table
   1  0.353  0.970  0.763-  49 1.00
   2  0.647  0.470  0.237-  50 1.00
   3  0.853  0.049  0.632-  51 1.00
   4  0.147  0.549  0.368-  52 1.00
   5  0.894  0.009  0.402-  75 0.84
   6  0.106  0.509  0.598-  76 0.84
   7  0.449  0.086  0.674-  53 1.00
   8  0.551  0.586  0.326-  54 1.00
   9  0.257  0.166  0.547-  77 0.84
  10  0.743  0.666  0.453-  78 0.84
  11  0.420  0.148  0.920-  55 1.00
  12  0.580  0.648  0.080-  56 1.00
  13  0.979  0.169  0.883-  79 0.84
  14  0.021  0.669  0.117-  80 0.84
  15  0.580  0.044  0.990-  57 1.00
  16  0.420  0.544  0.010-  58 1.00
  17  0.553  0.103  0.241-  59 0.99
  18  0.447  0.603  0.759-  60 0.99
  19  0.218  0.084  0.209-  59 0.99
  20  0.782  0.584  0.791-  60 0.99
  21  0.386  0.009  0.367-  81 0.84
  22  0.614  0.509  0.633-  82 0.84
  23  0.978  0.704  0.819-  61 1.00
  24  0.022  0.204  0.181-  62 1.00
  25  0.516  0.737  0.714-  85 0.84
  26  0.484  0.237  0.286-  86 0.84
  27  0.305  0.779  0.972-  63 1.00
  28  0.695  0.279  0.028-  64 1.00
  29  0.914  0.777  0.155-  87 0.84
  30  0.086  0.277  0.845-  88 0.84
  31  0.832  0.862  0.958-  65 1.00
  32  0.168  0.362  0.042-  66 1.00
  33  0.223  0.924  0.075-  89 0.84
  34  0.777  0.424  0.925-  90 0.84
  35  0.261  0.874  0.761-  67 1.00
  36  0.739  0.374  0.239-  68 1.00
  37  0.657  0.840  0.615-  69 1.00
  38  0.343  0.340  0.385-  70 1.00
  39  0.851  0.898  0.408-  71 0.99
  40  0.149  0.398  0.592-  72 0.99
  41  0.096  0.846  0.427-  71 0.99
  42  0.904  0.346  0.573-  72 0.99
  43  0.560  0.840  0.239-  91 0.84
  44  0.440  0.340  0.761-  92 0.84
  45  0.619  0.229  0.616-  95 0.84
  46  0.381  0.729  0.384-  96 0.84
  47  0.764  0.184  0.548-  95 0.85
  48  0.236  0.684  0.452-  96 0.85
  49  0.161  0.986  0.770-   1 1.00  73 1.40  83 1.43  51 1.52
  50  0.839  0.486  0.230-   2 1.00  74 1.40  84 1.43  52 1.52
  51  0.057  0.038  0.636-   3 1.00  75 1.42  49 1.52  53 1.52
  52  0.943  0.538  0.364-   4 1.00  76 1.42  50 1.52  54 1.52
  53  0.252  0.095  0.687-   7 1.00  77 1.43  51 1.52  55 1.54
  54  0.748  0.595  0.313-   8 1.00  78 1.43  52 1.52  56 1.54
  55  0.278  0.113  0.883-  11 1.00  79 1.42  57 1.52  53 1.54
  56  0.722  0.613  0.117-  12 1.00  80 1.42  58 1.52  54 1.54
  57  0.385  0.057  0.002-  15 1.00  83 1.44  59 1.51  55 1.52
  58  0.615  0.557  0.998-  16 1.00  84 1.44  60 1.51  56 1.52
  59  0.408  0.070  0.197-  17 0.99  19 0.99  81 1.43  57 1.51
  60  0.592  0.570  0.803-  18 0.99  20 0.99  82 1.43  58 1.51
  61  0.914  0.748  0.807-  23 1.00  85 1.40  93 1.42  63 1.53
  62  0.086  0.248  0.193-  24 1.00  86 1.40  94 1.42  64 1.53
  63  0.096  0.785  0.969-  27 1.00  87 1.43  65 1.52  61 1.53
  64  0.904  0.285  0.031-  28 1.00  88 1.43  66 1.52  62 1.53
  65  0.032  0.854  0.948-  31 1.00  89 1.43  63 1.52  67 1.53
  66  0.968  0.354  0.052-  32 1.00  90 1.43  64 1.52  68 1.53
  67  0.054  0.876  0.764-  35 1.00  73 1.44  69 1.53  65 1.53
  68  0.946  0.376  0.236-  36 1.00  74 1.44  70 1.53  66 1.53
  69  0.865  0.836  0.615-  37 1.00  93 1.43  71 1.52  67 1.53
  70  0.135  0.336  0.385-  38 1.00  94 1.43  72 1.52  68 1.53
  71  0.894  0.853  0.431-  41 0.99  39 0.99  91 1.43  69 1.52
  72  0.106  0.353  0.569-  42 0.99  40 0.99  92 1.43  70 1.52
  73  0.952  0.939  0.731-  49 1.40  67 1.44
  74  0.048  0.439  0.269-  50 1.40  68 1.44
  75  0.064  0.016  0.465-   5 0.84  51 1.42
  76  0.936  0.516  0.535-   6 0.84  52 1.42
  77  0.125  0.144  0.568-   9 0.84  53 1.43
  78  0.875  0.644  0.432-  10 0.84  54 1.43
  79  0.003  0.131  0.904-  13 0.84  55 1.42
  80  0.997  0.631  0.096-  14 0.84  56 1.42
  81  0.496  0.015  0.301-  21 0.84  59 1.43
  82  0.504  0.515  0.699-  22 0.84  60 1.43
  83  0.181  0.006  0.949-  49 1.43  57 1.44
  84  0.819  0.506  0.051-  50 1.43  58 1.44
  85  0.623  0.751  0.810-  25 0.84  61 1.40
  86  0.377  0.251  0.190-  26 0.84  62 1.40
  87  0.060  0.760  0.133-  29 0.84  63 1.43
  88  0.940  0.260  0.867-  30 0.84  64 1.43
  89  0.238  0.885  0.091-  33 0.84  65 1.43
  90  0.762  0.385  0.909-  34 0.84  66 1.43
  91  0.699  0.817  0.296-  43 0.84  71 1.43
  92  0.301  0.317  0.704-  44 0.84  72 1.43
  93  0.956  0.773  0.647-  61 1.42  69 1.43
  94  0.044  0.273  0.353-  62 1.42  70 1.43
  95  0.606  0.204  0.531-  45 0.84  47 0.85
  96  0.394  0.704  0.469-  46 0.84  48 0.85

  LATTYP: Found a simple monoclinic cell.
 ALAT       =     7.9210547763
 B/A-ratio  =     2.7193348119
 C/A-ratio  =     1.8854262698
 COS(beta)  =    -0.9533940903
  
  Lattice vectors:
  
 A1 = (  -2.6556711018,   0.0000000000,  -7.4626081077)
 A2 = (   0.0000000000, -21.5400000000,   0.0000000000)
 A3 = (   0.5283422035,   0.0000000000,  14.9252162154)


Analysis of symmetry for initial positions (statically):
=====================================================================
 Subroutine PRICEL returns:
 Original cell was already a primitive cell.
 

 Routine SETGRP: Setting up the symmetry group for a 
 simple monoclinic supercell.


 Subroutine GETGRP returns: Found  2 space group operations
 (whereof  1 operations were pure point group operations)
 out of a pool of  4 trial point group operations.


The static configuration has the point symmetry C_1 .
 The point group associated with its full space group is C_2 .


Analysis of symmetry for dynamics (positions and initial velocities):
=====================================================================
 Subroutine PRICEL returns:
 Original cell was already a primitive cell.
 

 Routine SETGRP: Setting up the symmetry group for a 
 simple monoclinic supercell.


 Subroutine GETGRP returns: Found  2 space group operations
 (whereof  1 operations were pure point group operations)
 out of a pool of  4 trial point group operations.


The dynamic configuration has the point symmetry C_1 .
 The point group associated with its full space group is C_2 .


 Subroutine INISYM returns: Found  2 space group operations
 (whereof  1 operations are pure point group operations),
 and found     1 'primitive' translations



 KPOINTS: Gamma-point only                        

Automatic generation of k-mesh.
Space group operators:
 irot       det(A)        alpha          n_x          n_y          n_z        tau_x        tau_y        tau_z
    1     1.000000     0.000001     1.000000     0.000000     0.000000     0.000000     0.000000     0.000000
    2     1.000000   180.000000     0.000000     1.000000     0.000000     0.000000    -0.500000     0.000000
 
 Subroutine IBZKPT returns following result:
 ===========================================
 
 Found     18 irreducible k-points:
 
 Following reciprocal coordinates:
            Coordinates               Weight
  0.000000  0.000000  0.000000      1.000000
  0.142857  0.000000  0.000000      2.000000
  0.285714  0.000000  0.000000      2.000000
  0.428571  0.000000  0.000000      2.000000
  0.000000  0.000000  0.200000      2.000000
  0.142857  0.000000  0.200000      2.000000
  0.285714  0.000000  0.200000      2.000000
  0.428571  0.000000  0.200000      2.000000
 -0.428571  0.000000  0.200000      2.000000
 -0.285714  0.000000  0.200000      2.000000
 -0.142857  0.000000  0.200000      2.000000
  0.000000  0.000000  0.400000      2.000000
  0.142857  0.000000  0.400000      2.000000
  0.285714  0.000000  0.400000      2.000000
  0.428571  0.000000  0.400000      2.000000
 -0.428571  0.000000  0.400000      2.000000
 -0.285714  0.000000  0.400000      2.000000
 -0.142857  0.000000  0.400000      2.000000
 
 Following cartesian coordinates:
            Coordinates               Weight
  0.000000  0.000000  0.000000      1.000000
  0.142857  0.000000  0.040724      2.000000
  0.285714  0.000000  0.081447      2.000000
  0.428571  0.000000  0.122171      2.000000
  0.000000  0.000000  0.128186      2.000000
  0.142857  0.000000  0.168909      2.000000
  0.285714  0.000000  0.209633      2.000000
  0.428571  0.000000  0.250356      2.000000
 -0.428571  0.000000  0.006015      2.000000
 -0.285714  0.000000  0.046739      2.000000
 -0.142857  0.000000  0.087462      2.000000
  0.000000  0.000000  0.256371      2.000000
  0.142857  0.000000  0.297095      2.000000
  0.285714  0.000000  0.337819      2.000000
  0.428571  0.000000  0.378542      2.000000
 -0.428571  0.000000  0.134201      2.000000
 -0.285714  0.000000  0.174924      2.000000
 -0.142857  0.000000  0.215648      2.000000
 
 TETIRR: Found    102 inequivalent tetrahedra from      210


--------------------------------------------------------------------------------------------------------




 Dimension of arrays:
   k-points           NKPTS =     18   k-points in BZ     NKDIM =     18   number of bands    NBANDS=    194
   number of dos      NEDOS =    301   number of ions     NIONS =     96
   non local maximal  LDIM  =      4   non local SUM 2l+1 LMDIM =      8
   total plane-waves  NPLWV = 564480
   max r-space proj   IRMAX =      1   max aug-charges    IRDMAX=   9724
   dimension x,y,z NGX =    42 NGY =  192 NGZ =   70
   dimension x,y,z NGXF=    84 NGYF=  384 NGZF=  140
   support grid    NGXF=    84 NGYF=  384 NGZF=  140
   ions per type =              48  24  24
   NGX,Y,Z   is equivalent  to a cutoff of  14.60, 14.82, 15.00 a.u.
   NGXF,Y,Z  is equivalent  to a cutoff of  29.20, 29.64, 29.99 a.u.

 SYSTEM =  unknown system                          
 POSCAR =  Generated by cif2cell 1.2.11 from COD re

 Startparameter for this run:
   NWRITE =      2    write-flag & timer
   PREC   = accura    normal or accurate (medium, high low for compatibility)
   ISTART =      0    job   : 0-new  1-cont  2-samecut
   ICHARG =      2    charge: 1-file 2-atom 10-const
   ISPIN  =      1    spin polarized calculation?
   LNONCOLLINEAR =      F non collinear calculations
   LSORBIT =      F    spin-orbit coupling
   INIWAV =      1    electr: 0-lowe 1-rand  2-diag
   LASPH  =      F    aspherical Exc in radial PAW
   METAGGA=      F    non-selfconsistent MetaGGA calc.

 Electronic Relaxation 1
   ENCUT  =  700.0 eV  51.45 Ry    7.17 a.u.  10.32 46.47 16.74*2*pi/ulx,y,z
   ENINI  =  700.0     initial cutoff
   ENAUG  =  644.9 eV  augmentation charge cutoff
   NELM   =     60;   NELMIN=  4; NELMDL= -5     # of ELM steps 
   EDIFF  = 0.5E-05   stopping-criterion for ELM
   LREAL  =      F    real-space projection
   NLSPLINE    = F    spline interpolate recip. space projectors
   LCOMPAT=      F    compatible to vasp.4.4
   GGA_COMPAT  = T    GGA compatible to vasp.4.4-vasp.4.6
   LMAXPAW     = -100 max onsite density
   LMAXMIX     =    4 max onsite mixed and CHGCAR
   VOSKOWN=      0    Vosko Wilk Nusair interpolation
   ROPT   =    0.00000   0.00000   0.00000
 Ionic relaxation
   EDIFFG = 0.5E-04   stopping-criterion for IOM
   NSW    =      0    number of steps for IOM
   NBLOCK =      1;   KBLOCK =      1    inner block; outer block 
   IBRION =     -1    ionic relax: 0-MD 1-quasi-New 2-CG
   NFREE  =     10    steps in history (QN), initial steepest desc. (CG)
   ISIF   =      3    stress and relaxation
   IWAVPR =     10    prediction:  0-non 1-charg 2-wave 3-comb
   ISYM   =      2    0-nonsym 1-usesym 2-fastsym
   LCORR  =      T    Harris-Foulkes like correction to forces

   POTIM  = 0.2000    time-step for ionic-motion
   TEIN   =    0.0    initial temperature
   TEBEG  =    0.0;   TEEND  =   0.0 temperature during run
   SMASS  =  -3.00    Nose mass-parameter (am)
   estimated Nose-frequenzy (Omega)   =  0.10E-29 period in steps =****** mass=  -0.523E-27a.u.
   SCALEE = 1.0000    scale energy and forces
   NPACO  =    256;   APACO  = 16.0  distance and # of slots for P.C.
   PSTRESS=    0.0 pullay stress

  Mass of Ions in am
   POMASS =   1.00 12.01 16.00
  Ionic Valenz
   ZVAL   =   1.00  4.00  6.00
  Atomic Wigner-Seitz radii
   RWIGS  =  -1.00 -1.00 -1.00
  virtual crystal weights 
   VCA    =   1.00  1.00  1.00
   NELECT =     288.0000    total number of electrons
   NUPDOWN=      -1.0000    fix difference up-down

 DOS related values:
   EMIN   =  10.00;   EMAX   =-10.00  energy-range for DOS
   EFERMI =   0.00
   ISMEAR =    -5;   SIGMA  =   0.05  broadening in eV -4-tet -1-fermi 0-gaus

 Electronic relaxation 2 (details)
   IALGO  =     68    algorithm
   LDIAG  =      T    sub-space diagonalisation (order eigenvalues)
   LSUBROT=      F    optimize rotation matrix (better conditioning)
   TURBO    =      0    0=normal 1=particle mesh
   IRESTART =      0    0=no restart 2=restart with 2 vectors
   NREBOOT  =      0    no. of reboots
   NMIN     =      0    reboot dimension
   EREF     =   0.00    reference energy to select bands
   IMIX   =      4    mixing-type and parameters
     AMIX     =   0.40;   BMIX     =  1.00
     AMIX_MAG =   1.60;   BMIX_MAG =  1.00
     AMIN     =   0.10
     WC   =   100.;   INIMIX=   1;  MIXPRE=   1;  MAXMIX= -45

 Intra band minimization:
   WEIMIN = 0.0000     energy-eigenvalue tresh-hold
   EBREAK =  0.64E-08  absolut break condition
   DEPER  =   0.30     relativ break condition  

   TIME   =   0.40     timestep for ELM

  volume/ion in A,a.u.               =       8.01        54.05
  Fermi-wavevector in a.u.,A,eV,Ry     =   1.180122  2.230106 18.948656  1.392687
  Thomas-Fermi vector in A             =   2.316420

 Write flags
   LWAVE        =      T    write WAVECAR
   LDOWNSAMPLE  =      F    k-point downsampling of WAVECAR
   LCHARG       =      T    write CHGCAR
   LVTOT        =      F    write LOCPOT, total local potential
   LVHAR        =      F    write LOCPOT, Hartree potential only
   LELF         =      F    write electronic localiz. function (ELF)
   LORBIT       =      0    0 simple, 1 ext, 2 COOP (PROOUT), +10 PAW based schemes


 Dipole corrections
   LMONO  =      F    monopole corrections only (constant potential shift)
   LDIPOL =      F    correct potential (dipole corrections)
   IDIPOL =      0    1-x, 2-y, 3-z, 4-all directions 
   EPSILON=  1.0000000 bulk dielectric constant

 Exchange correlation treatment:
   GGA     =    --    GGA type
   LEXCH   =     8    internal setting for exchange type
   VOSKOWN=      0    Vosko Wilk Nusair interpolation
   LHFCALC =     F    Hartree Fock is set to
   LHFONE  =     F    Hartree Fock one center treatment
   AEXX    =    0.0000 exact exchange contribution

 Linear response parameters
   LEPSILON=     F    determine dielectric tensor
   LRPA    =     F    only Hartree local field effects (RPA)
   LNABLA  =     F    use nabla operator in PAW spheres
   LVEL    =     F    velocity operator in full k-point grid
   LINTERFAST=   F  fast interpolation
   KINTER  =     0    interpolate to denser k-point grid
   CSHIFT  =0.1000    complex shift for real part using Kramers Kronig
   OMEGAMAX=  -1.0    maximum frequency
   DEG_THRESHOLD= 0.2000000E-02 threshold for treating states as degnerate
   RTIME   =   -0.100 relaxation time in fs
  (WPLASMAI=    0.000 imaginary part of plasma frequency in eV, 0.658/RTIME)
   DFIELD  = 0.0000000 0.0000000 0.0000000 field for delta impulse in time

 Orbital magnetization related:
   ORBITALMAG=     F  switch on orbital magnetization
   LCHIMAG   =     F  perturbation theory with respect to B field
   DQ        =  0.001000  dq finite difference perturbation B field
   LLRAUG    =     F  two centre corrections for induced B field



--------------------------------------------------------------------------------------------------------


 Static calculation
 charge density and potential will be updated during run
 non-spin polarized calculation
 RMM-DIIS sequential band-by-band and
  variant of blocked Davidson during initial phase
 perform sub-space diagonalisation
    before iterative eigenvector-optimisation
 modified Broyden-mixing scheme, WC =      100.0
 initial mixing is a Kerker type mixing with AMIX =  0.4000 and BMIX =      1.0000
 Hartree-type preconditioning will be used
 using additional bands           50
 reciprocal scheme for non local part
 use partial core corrections
 calculate Harris-corrections to forces   (improved forces if not selfconsistent)
 use gradient corrections 
 use of overlap-Matrix (Vanderbilt PP)
 Fermi weights with tetrahedron method with Bloechl corrections


--------------------------------------------------------------------------------------------------------


  energy-cutoff  :      700.00
  volume of cell :      768.84
      direct lattice vectors                 reciprocal lattice vectors
     4.783000000  0.000000000  0.000000000     0.209073803 -0.000000000  0.059599638
     0.000000000 21.540000000  0.000000000     0.000000000  0.046425255 -0.000000000
    -2.127328898  0.000000000  7.462608108     0.000000000  0.000000000  0.134001409

  length of vectors
     4.783000000 21.540000000  7.759900000     0.217402787  0.046425255  0.134001409



 k-points in units of 2pi/SCALE and weight: Gamma-point only                        
   0.00000000  0.00000000  0.00000000       0.029
   0.14285714  0.00000000  0.04072358       0.057
   0.28571429  0.00000000  0.08144716       0.057
   0.42857143  0.00000000  0.12217074       0.057
   0.00000000  0.00000000  0.12818575       0.057
   0.14285714  0.00000000  0.16890933       0.057
   0.28571429  0.00000000  0.20963291       0.057
   0.42857143  0.00000000  0.25035649       0.057
  -0.42857143  0.00000000  0.00601500       0.057
  -0.28571429  0.00000000  0.04673858       0.057
  -0.14285714  0.00000000  0.08746217       0.057
   0.00000000  0.00000000  0.25637150       0.057
   0.14285714  0.00000000  0.29709508       0.057
   0.28571429  0.00000000  0.33781866       0.057
   0.42857143  0.00000000  0.37854224       0.057
  -0.42857143  0.00000000  0.13420075       0.057
  -0.28571429  0.00000000  0.17492433       0.057
  -0.14285714  0.00000000  0.21564791       0.057

 k-points in reciprocal lattice and weights: Gamma-point only                        
   0.00000000  0.00000000  0.00000000       0.029
   0.14285714  0.00000000  0.00000000       0.057
   0.28571429  0.00000000  0.00000000       0.057
   0.42857143  0.00000000  0.00000000       0.057
   0.00000000  0.00000000  0.20000000       0.057
   0.14285714  0.00000000  0.20000000       0.057
   0.28571429  0.00000000  0.20000000       0.057
   0.42857143  0.00000000  0.20000000       0.057
  -0.42857143  0.00000000  0.20000000       0.057
  -0.28571429  0.00000000  0.20000000       0.057
  -0.14285714  0.00000000  0.20000000       0.057
   0.00000000  0.00000000  0.40000000       0.057
   0.14285714  0.00000000  0.40000000       0.057
   0.28571429  0.00000000  0.40000000       0.057
   0.42857143  0.00000000  0.40000000       0.057
  -0.42857143  0.00000000  0.40000000       0.057
  -0.28571429  0.00000000  0.40000000       0.057
  -0.14285714  0.00000000  0.40000000       0.057

 position of ions in fractional coordinates (direct lattice) 
   0.35300000  0.96960000  0.76250000
   0.64700000  0.46960000  0.23750000
   0.85330000  0.04940000  0.63220000
   0.14670000  0.54940000  0.36780000
   0.89350000  0.00930000  0.40190000
   0.10650000  0.50930000  0.59810000
   0.44890000  0.08550000  0.67380000
   0.55110000  0.58550000  0.32620000
   0.25720000  0.16600000  0.54740000
   0.74280000  0.66600000  0.45260000
   0.42010000  0.14770000  0.92000000
   0.57990000  0.64770000  0.08000000
   0.97920000  0.16920000  0.88330000
   0.02080000  0.66920000  0.11670000
   0.57960000  0.04350000  0.99010000
   0.42040000  0.54350000  0.00990000
   0.55260000  0.10320000  0.24140000
   0.44740000  0.60320000  0.75860000
   0.21810000  0.08410000  0.20940000
   0.78190000  0.58410000  0.79060000
   0.38590000  0.00890000  0.36720000
   0.61410000  0.50890000  0.63280000
   0.97790000  0.70400000  0.81910000
   0.02210000  0.20400000  0.18090000
   0.51590000  0.73740000  0.71360000
   0.48410000  0.23740000  0.28640000
   0.30480000  0.77890000  0.97210000
   0.69520000  0.27890000  0.02790000
   0.91440000  0.77660000  0.15460000
   0.08560000  0.27660000  0.84540000
   0.83170000  0.86210000  0.95770000
   0.16830000  0.36210000  0.04230000
   0.22280000  0.92360000  0.07550000
   0.77720000  0.42360000  0.92450000
   0.26090000  0.87380000  0.76050000
   0.73910000  0.37380000  0.23950000
   0.65680000  0.84010000  0.61550000
   0.34320000  0.34010000  0.38450000
   0.85060000  0.89810000  0.40840000
   0.14940000  0.39810000  0.59160000
   0.09650000  0.84600000  0.42690000
   0.90350000  0.34600000  0.57310000
   0.56000000  0.83960000  0.23950000
   0.44000000  0.33960000  0.76050000
   0.61900000  0.22940000  0.61600000
   0.38100000  0.72940000  0.38400000
   0.76400000  0.18350000  0.54800000
   0.23600000  0.68350000  0.45200000
   0.16110000  0.98586000  0.77050000
   0.83890000  0.48586000  0.22950000
   0.05740000  0.03808000  0.63560000
   0.94260000  0.53808000  0.36440000
   0.25150000  0.09504000  0.68740000
   0.74850000  0.59504000  0.31260000
   0.27840000  0.11279000  0.88320000
   0.72160000  0.61279000  0.11680000
   0.38530000  0.05660000  0.00230000
   0.61470000  0.55660000  0.99770000
   0.40850000  0.06982000  0.19710000
   0.59150000  0.56982000  0.80290000
   0.91360000  0.74839000  0.80740000
   0.08640000  0.24839000  0.19260000
   0.09610000  0.78476000  0.96910000
   0.90390000  0.28476000  0.03090000
   0.03250000  0.85405000  0.94770000
   0.96750000  0.35405000  0.05230000
   0.05400000  0.87617000  0.76450000
   0.94600000  0.37617000  0.23550000
   0.86490000  0.83626000  0.61490000
   0.13510000  0.33626000  0.38510000
   0.89420000  0.85339000  0.43110000
   0.10580000  0.35339000  0.56890000
   0.95150000  0.93889000  0.73070000
   0.04850000  0.43889000  0.26930000
   0.06400000  0.01591000  0.46480000
   0.93600000  0.51591000  0.53520000
   0.12490000  0.14411000  0.56830000
   0.87510000  0.64411000  0.43170000
   0.00320000  0.13101000  0.90350000
   0.99680000  0.63101000  0.09650000
   0.49600000  0.01480000  0.30100000
   0.50400000  0.51480000  0.69900000
   0.18150000  0.00615000  0.94850000
   0.81850000  0.50615000  0.05150000
   0.62290000  0.75121000  0.81050000
   0.37710000  0.25121000  0.18950000
   0.06020000  0.76024000  0.13270000
   0.93980000  0.26024000  0.86730000
   0.23820000  0.88500000  0.09120000
   0.76180000  0.38500000  0.90880000
   0.69900000  0.81723000  0.29570000
   0.30100000  0.31723000  0.70430000
   0.95550000  0.77294000  0.64680000
   0.04450000  0.27294000  0.35320000
   0.60640000  0.20401000  0.53140000
   0.39360000  0.70401000  0.46860000

 position of ions in cartesian coordinates  (Angst):
   0.06631072 20.88518400  5.69023868
   2.58936039 10.11518400  1.77236943
   2.73643657  1.06407600  4.71786085
  -0.08076547 11.83407600  2.74474726
   3.41863702  0.20032200  2.99922220
  -0.76296591 10.97032200  4.46338591
   0.71369449  1.84167000  5.02830534
   1.94197661 12.61167000  2.43430276
   0.06568776  3.57564000  4.08503168
   2.58998334 14.34564000  3.37757643
   0.05219571  3.18145800  6.86559946
   2.60347539 13.95145800  0.59700865
   2.80444398  3.64456800  6.59172174
  -0.14877288 14.41456800  0.87088637
   0.66595846  0.93699000  7.38872829
   1.98971264 11.70699000  0.07387982
   2.12954860  2.22292800  1.80147360
   0.52612250 12.99292800  5.66113451
   0.59770963  1.81151400  1.56267014
   2.05796147 12.58151400  5.89993797
   1.06460453  0.19170600  2.74026970
   1.59106657 10.96170600  4.72233841
   2.93480060 15.16416000  6.11262230
  -0.27912950  4.39416000  1.34998581
   0.94948780 15.88359600  5.32531715
   1.70618330  5.11359600  2.13729096
  -0.61011802 16.77750600  7.25440134
   3.26578912  6.00750600  0.20820677
   4.04469015 16.72796400  1.15371921
  -1.38901905  5.95796400  6.30888889
   1.94067821 18.56963400  7.14693978
   0.71499289  7.79963400  0.31566832
   0.90503907 19.89434400  0.56342691
   1.75063203  9.12434400  6.89918120
  -0.36994893 18.82165200  5.67531347
   3.02562003  8.05165200  1.78729464
   1.83210346 18.09575400  4.59323529
   0.82356764  7.32575400  2.86937282
   3.19961868 19.34507400  3.04772915
  -0.54394758  8.57507400  4.41487896
  -0.44659721 18.22284000  3.18578740
   3.10226831  7.45284000  4.27682071
   2.16898473 18.08498400  1.78729464
   0.48668637  7.31498400  5.67531347
   1.65024240  4.94127600  4.59696659
   1.00542870 15.71127600  2.86564151
   2.48843576  3.95259000  4.08950924
   0.16723534 14.72259000  3.37309886
  -0.86856562 21.23542440  5.74993955
   3.52423672 10.46542440  1.71266856
  -1.07758605  0.82024320  4.74323371
   3.73325715 11.59024320  2.71937439
  -0.25940138  2.04716160  5.12979681
   2.91507249 12.81716160  2.33281129
  -0.54726968  2.42949660  6.59097548
   3.20294078 13.19949660  0.87163263
   1.83799704  1.21916400  0.01716400
   0.81767406 11.98916400  7.44544411
   1.53455897  1.50392280  1.47088006
   1.12111213 12.27392280  5.99172805
   2.65214345 16.12032060  6.02530979
   0.00352765  5.35032060  1.43729832
  -1.60194814 16.90373040  7.23201352
   4.25761924  6.13373040  0.23059459
  -1.86062210 18.39623700  7.07231370
   4.51629320  7.62623700  0.39029440
  -1.36806094 18.87270180  5.70516390
   4.02373204  8.10270180  1.75744421
   2.82872216 18.01304040  4.58875773
  -0.17305106  7.24304040  2.87385038
   3.35986711 18.38202060  3.21713036
  -0.70419601  7.61202060  4.24547775
   2.99658527 20.22369060  5.45292774
  -0.34091417  9.45369060  2.00968036
  -0.68267047  0.34270140  3.46862025
   3.33834157 11.11270140  3.99398786
  -0.61156431  3.10412940  4.24100019
   3.26723541 13.87412940  3.22160792
  -1.90673606  2.82195540  6.74246643
   4.56240716 13.59195540  0.72014168
   1.73204200  0.31879200  2.24624504
   0.92362910 11.08879200  5.21636307
  -1.14965696  0.13247100  7.07828379
   3.80532806 10.90247100  0.38432432
   1.25513063 16.18106340  6.04844387
   1.40054047  5.41106340  1.41416424
   0.00564006 16.37556960  0.99028810
   2.65003105  5.60556960  6.47232001
   0.94529820 19.06290000  0.68058986
   1.71037290  8.29290000  6.78201825
   2.71426584 17.60313420  2.20669322
  -0.05859474  6.83313420  5.25591489
   3.19420017 16.64912760  4.82681492
  -0.53852907  5.87912760  2.63579318
   1.76994862  4.39437540  3.96562995
   0.88572248 15.16437540  3.49697816



--------------------------------------------------------------------------------------------------------


 k-point  1 :   0.0000 0.0000 0.0000  plane waves:   32393
 k-point  2 :   0.1429 0.0000 0.0000  plane waves:   32368
 k-point  3 :   0.2857 0.0000 0.0000  plane waves:   32320
 k-point  4 :   0.4286 0.0000 0.0000  plane waves:   32336
 k-point  5 :   0.0000 0.0000 0.2000  plane waves:   32357
 k-point  6 :   0.1429 0.0000 0.2000  plane waves:   32332
 k-point  7 :   0.2857 0.0000 0.2000  plane waves:   32304
 k-point  8 :   0.4286 0.0000 0.2000  plane waves:   32316
 k-point  9 :  -0.4286 0.0000 0.2000  plane waves:   32314
 k-point 10 :  -0.2857 0.0000 0.2000  plane waves:   32323
 k-point 11 :  -0.1429 0.0000 0.2000  plane waves:   32360
 k-point 12 :   0.0000 0.0000 0.4000  plane waves:   32357
 k-point 13 :   0.1429 0.0000 0.4000  plane waves:   32346
 k-point 14 :   0.2857 0.0000 0.4000  plane waves:   32329
 k-point 15 :   0.4286 0.0000 0.4000  plane waves:   32307
 k-point 16 :  -0.4286 0.0000 0.4000  plane waves:   32293
 k-point 17 :  -0.2857 0.0000 0.4000  plane waves:   32308
 k-point 18 :  -0.1429 0.0000 0.4000  plane waves:   32365

 maximum and minimum number of plane-waves per node :      8131     8061

 maximum number of plane-waves:     32393
 maximum index in each direction: 
   IXMAX=   10   IYMAX=   46   IZMAX=   16
   IXMIN=  -10   IYMIN=  -46   IZMIN=  -17


 parallel 3D FFT for wavefunctions:
    minimum data exchange during FFTs selected (reduces bandwidth)
 parallel 3D FFT for charge:
    minimum data exchange during FFTs selected (reduces bandwidth)


 total amount of memory used by VASP MPI-rank0   369634. kBytes
=======================================================================

   base      :      30000. kBytes
   nonl-proj :      40435. kBytes
   fftplans  :      24288. kBytes
   grid      :      44199. kBytes
   one-center:         73. kBytes
   wavefun   :     230639. kBytes

     INWAV:  cpu time    0.0000: real time    0.0000
 Broyden mixing: mesh for mixing (old mesh)
   NGX = 21   NGY = 93   NGZ = 33
  (NGX  = 84   NGY  =384   NGZ  =140)
  gives a total of  64449 points

 initial charge density was supplied:
 charge density of overlapping atoms calculated
 number of electron     288.0000000 magnetization 
 keeping initial charge density in first step


--------------------------------------------------------------------------------------------------------


 Maximum index for augmentation-charges         1440 (set IRDMAX)


--------------------------------------------------------------------------------------------------------


 First call to EWALD:  gamma=   0.193
 Maximum number of real-space cells 5x 1x 3
 Maximum number of reciprocal cells 2x 6x 2

    FEWALD:  cpu time    0.0169: real time    0.0170


--------------------------------------- Iteration      1(   1)  ---------------------------------------


    POTLOK:  cpu time    0.5972: real time    0.5981
    SETDIJ:  cpu time    0.0258: real time    0.0258
     EDDAV:  cpu time  144.2338: real time  144.2356
 BZINTS: Fermi energy: 13.714287;288.000000 electrons
         Band energy:-721.831570;  BLOECHL correction: -0.031423
       DOS:  cpu time    0.0333: real time    0.0333
    --------------------------------------------
      LOOP:  cpu time  144.8900: real time  144.8928

 eigenvalue-minimisations  :  6984
 total energy-change (2. order) : 0.2034454E+04  (-0.1725340E+05)
 number of electron     288.0000000 magnetization 
 augmentation part      288.0000000 magnetization 

 Free energy of the ion-electron system (eV)
  ---------------------------------------------------
  alpha Z        PSCENC =       436.63449077
  Ewald energy   TEWEN  =     -6479.09538156
  -Hartree energ DENC   =     -6771.87739825
  -exchange      EXHF   =         0.00000000
  -V(xc)+E(xc)   XCENC  =      1119.91203240
  PAW double counting   =     11024.14987542   -11081.40984445
  entropy T*S    EENTRO =         0.00000000
  eigenvalues    EBANDS =      -721.83157011
  atomic energy  EATOM  =     14507.97142622
  Solvation  Ediel_sol  =         0.00000000
  ---------------------------------------------------
  free energy    TOTEN  =      2034.45363044 eV

  energy without entropy =     2034.45363044  energy(sigma->0) =     2034.45363044


--------------------------------------------------------------------------------------------------------




--------------------------------------- Iteration      1(   2)  ---------------------------------------


     EDDAV:  cpu time  168.3742: real time  168.3735
 BZINTS: Fermi energy: -1.372335;288.000000 electrons
         Band energy:***********;  BLOECHL correction:  0.000000
       DOS:  cpu time    0.0065: real time    0.0066
    --------------------------------------------
      LOOP:  cpu time  168.3807: real time  168.3801

 eigenvalue-minimisations  :  8528
 total energy-change (2. order) :-0.2419114E+04  (-0.2329624E+04)
 number of electron     288.0000000 magnetization 
 augmentation part      288.0000000 magnetization 

 Free energy of the ion-electron system (eV)
  ---------------------------------------------------
  alpha Z        PSCENC =       436.63449077
  Ewald energy   TEWEN  =     -6479.09538156
  -Hartree energ DENC   =     -6771.87739825
  -exchange      EXHF   =         0.00000000
  -V(xc)+E(xc)   XCENC  =      1119.91203240
  PAW double counting   =     11024.14987542   -11081.40984445
  entropy T*S    EENTRO =         0.00000000
  eigenvalues    EBANDS =     -3140.94593014
  atomic energy  EATOM  =     14507.97142622
  Solvation  Ediel_sol  =         0.00000000
  ---------------------------------------------------
  free energy    TOTEN  =      -384.66072959 eV

  energy without entropy =     -384.66072959  energy(sigma->0) =     -384.66072959


--------------------------------------------------------------------------------------------------------




--------------------------------------- Iteration      1(   3)  ---------------------------------------


     EDDAV:  cpu time  167.9136: real time  167.9131
 BZINTS: Fermi energy: -3.245130;288.000000 electrons
         Band energy:***********;  BLOECHL correction:  0.000000
       DOS:  cpu time    0.0054: real time    0.0055
    --------------------------------------------
      LOOP:  cpu time  167.9191: real time  167.9186

 eigenvalue-minimisations  :  8468
 total energy-change (2. order) :-0.1995779E+03  (-0.1980577E+03)
 number of electron     288.0000000 magnetization 
 augmentation part      288.0000000 magnetization 

 Free energy of the ion-electron system (eV)
  ---------------------------------------------------
  alpha Z        PSCENC =       436.63449077
  Ewald energy   TEWEN  =     -6479.09538156
  -Hartree energ DENC   =     -6771.87739825
  -exchange      EXHF   =         0.00000000
  -V(xc)+E(xc)   XCENC  =      1119.91203240
  PAW double counting   =     11024.14987542   -11081.40984445
  entropy T*S    EENTRO =         0.00000000
  eigenvalues    EBANDS =     -3340.52379518
  atomic energy  EATOM  =     14507.97142622
  Solvation  Ediel_sol  =         0.00000000
  ---------------------------------------------------
  free energy    TOTEN  =      -584.23859463 eV

  energy without entropy =     -584.23859463  energy(sigma->0) =     -584.23859463


--------------------------------------------------------------------------------------------------------




--------------------------------------- Iteration      1(   4)  ---------------------------------------


     EDDAV:  cpu time  169.1212: real time  169.1197
 BZINTS: Fermi energy: -3.240381;288.000000 electrons
         Band energy:***********;  BLOECHL correction:  0.000000
       DOS:  cpu time    0.0063: real time    0.0064
    --------------------------------------------
      LOOP:  cpu time  169.1275: real time  169.1260

 eigenvalue-minimisations  :  8524
 total energy-change (2. order) :-0.3824704E+01  (-0.3808267E+01)
 number of electron     288.0000000 magnetization 
 augmentation part      288.0000000 magnetization 

 Free energy of the ion-electron system (eV)
  ---------------------------------------------------
  alpha Z        PSCENC =       436.63449077
  Ewald energy   TEWEN  =     -6479.09538156
  -Hartree energ DENC   =     -6771.87739825
  -exchange      EXHF   =         0.00000000
  -V(xc)+E(xc)   XCENC  =      1119.91203240
  PAW double counting   =     11024.14987542   -11081.40984445
  entropy T*S    EENTRO =         0.00000000
  eigenvalues    EBANDS =     -3344.34849965
  atomic energy  EATOM  =     14507.97142622
  Solvation  Ediel_sol  =         0.00000000
  ---------------------------------------------------
  free energy    TOTEN  =      -588.06329911 eV

  energy without entropy =     -588.06329911  energy(sigma->0) =     -588.06329911


--------------------------------------------------------------------------------------------------------




--------------------------------------- Iteration      1(   5)  ---------------------------------------


     EDDAV:  cpu time  172.1070: real time  172.1047
 BZINTS: Fermi energy: -3.274740;288.000000 electrons
         Band energy:***********;  BLOECHL correction:  0.000000
       DOS:  cpu time    0.0055: real time    0.0055
    CHARGE:  cpu time    4.7118: real time    4.7133
    MIXING:  cpu time    0.0161: real time    0.0161
    --------------------------------------------
      LOOP:  cpu time  176.8404: real time  176.8396

 eigenvalue-minimisations  :  8536
 total energy-change (2. order) :-0.1022464E+00  (-0.1020881E+00)
 number of electron     288.0000010 magnetization 
 augmentation part       22.2671753 magnetization 

 Broyden mixing:
  rms(total) = 0.45898E+01    rms(broyden)= 0.45895E+01
  rms(prec ) = 0.48546E+01
  weight for this iteration     100.00

 Free energy of the ion-electron system (eV)
  ---------------------------------------------------
  alpha Z        PSCENC =       436.63449077
  Ewald energy   TEWEN  =     -6479.09538156
  -Hartree energ DENC   =     -6771.87739825
  -exchange      EXHF   =         0.00000000
  -V(xc)+E(xc)   XCENC  =      1119.91203240
  PAW double counting   =     11024.14987542   -11081.40984445
  entropy T*S    EENTRO =         0.00000000
  eigenvalues    EBANDS =     -3344.45074601
  atomic energy  EATOM  =     14507.97142622
  Solvation  Ediel_sol  =         0.00000000
  ---------------------------------------------------
  free energy    TOTEN  =      -588.16554547 eV

  energy without entropy =     -588.16554547  energy(sigma->0) =     -588.16554547


--------------------------------------------------------------------------------------------------------




--------------------------------------- Iteration      1(   6)  ---------------------------------------


    POTLOK:  cpu time    0.5978: real time    0.5988
    SETDIJ:  cpu time    0.0253: real time    0.0253
    EDDIAG:  cpu time   15.7982: real time   15.8023
  RMM-DIIS:  cpu time  112.8604: real time  112.8865
    ORTHCH:  cpu time    3.0846: real time    3.0852
 BZINTS: Fermi energy: -1.636150;288.000000 electrons
         Band energy:***********;  BLOECHL correction:  0.000000
       DOS:  cpu time    0.0056: real time    0.0060
    CHARGE:  cpu time    4.5336: real time    4.5351
    MIXING:  cpu time    0.0119: real time    0.0119
    --------------------------------------------
      LOOP:  cpu time  136.9175: real time  136.9512

 eigenvalue-minimisations  :  7642
 total energy-change (2. order) : 0.4345670E+02  (-0.9805403E+01)
 number of electron     288.0000009 magnetization 
 augmentation part       20.3415357 magnetization 

 Broyden mixing:
  rms(total) = 0.22125E+01    rms(broyden)= 0.22124E+01
  rms(prec ) = 0.23124E+01
  weight for this iteration     100.00

 eigenvalues of (default mixing * dielectric matrix)
  average eigenvalue GAMMA=   1.3712
  1.3712

 Free energy of the ion-electron system (eV)
  ---------------------------------------------------
  alpha Z        PSCENC =       436.63449077
  Ewald energy   TEWEN  =     -6479.09538156
  -Hartree energ DENC   =     -7277.80618847
  -exchange      EXHF   =         0.00000000
  -V(xc)+E(xc)   XCENC  =      1152.19327421
  PAW double counting   =     15457.61496945   -15524.44886719
  entropy T*S    EENTRO =         0.00000000
  eigenvalues    EBANDS =     -2817.77256492
  atomic energy  EATOM  =     14507.97142622
  Solvation  Ediel_sol  =         0.00000000
  ---------------------------------------------------
  free energy    TOTEN  =      -544.70884150 eV

  energy without entropy =     -544.70884150  energy(sigma->0) =     -544.70884150


--------------------------------------------------------------------------------------------------------




--------------------------------------- Iteration      1(   7)  ---------------------------------------


    POTLOK:  cpu time    0.6048: real time    0.6058
    SETDIJ:  cpu time    0.0258: real time    0.0258
    EDDIAG:  cpu time   15.7052: real time   15.7088
  RMM-DIIS:  cpu time  123.7247: real time  123.7531
    ORTHCH:  cpu time    3.0351: real time    3.0357
 BZINTS: Fermi energy: -0.919048;288.000000 electrons
         Band energy:***********;  BLOECHL correction:  0.000000
       DOS:  cpu time    0.0053: real time    0.0055
    CHARGE:  cpu time    4.4784: real time    4.4797
    MIXING:  cpu time    0.0124: real time    0.0124
    --------------------------------------------
      LOOP:  cpu time  147.5916: real time  147.6268

 eigenvalue-minimisations  :  8362
 total energy-change (2. order) : 0.7179701E+01  (-0.1777678E+01)
 number of electron     288.0000009 magnetization 
 augmentation part       19.8705096 magnetization 

 Broyden mixing:
  rms(total) = 0.10042E+01    rms(broyden)= 0.10042E+01
  rms(prec ) = 0.10340E+01
  weight for this iteration     100.00

 eigenvalues of (default mixing * dielectric matrix)
  average eigenvalue GAMMA=   1.6841
  1.2105  2.1577

 Free energy of the ion-electron system (eV)
  ---------------------------------------------------
  alpha Z        PSCENC =       436.63449077
  Ewald energy   TEWEN  =     -6479.09538156
  -Hartree energ DENC   =     -7513.59300615
  -exchange      EXHF   =         0.00000000
  -V(xc)+E(xc)   XCENC  =      1168.41777528
  PAW double counting   =     19969.69156039   -20039.39944590
  entropy T*S    EENTRO =         0.00000000
  eigenvalues    EBANDS =     -2588.15655942
  atomic energy  EATOM  =     14507.97142622
  Solvation  Ediel_sol  =         0.00000000
  ---------------------------------------------------
  free energy    TOTEN  =      -537.52914037 eV

  energy without entropy =     -537.52914037  energy(sigma->0) =     -537.52914037


--------------------------------------------------------------------------------------------------------




--------------------------------------- Iteration      1(   8)  ---------------------------------------


    POTLOK:  cpu time    0.6249: real time    0.6258
    SETDIJ:  cpu time    0.0257: real time    0.0257
    EDDIAG:  cpu time   16.4054: real time   16.4057
  RMM-DIIS:  cpu time  128.0806: real time  128.0854
    ORTHCH:  cpu time    3.0928: real time    3.0931
 BZINTS: Fermi energy: -0.605810;288.000000 electrons
         Band energy:***********;  BLOECHL correction:  0.000000
       DOS:  cpu time    0.0067: real time    0.0070
    CHARGE:  cpu time    4.6222: real time    4.6231
    MIXING:  cpu time    0.0129: real time    0.0129
    --------------------------------------------
      LOOP:  cpu time  152.8711: real time  152.8787

 eigenvalue-minimisations  :  8640
 total energy-change (2. order) : 0.6266254E+00  (-0.2891801E+00)
 number of electron     288.0000009 magnetization 
 augmentation part       19.8638565 magnetization 

 Broyden mixing:
  rms(total) = 0.22320E+00    rms(broyden)= 0.22320E+00
  rms(prec ) = 0.23139E+00
  weight for this iteration     100.00

 eigenvalues of (default mixing * dielectric matrix)
  average eigenvalue GAMMA=   1.6847
  2.3323  1.1632  1.5587

 Free energy of the ion-electron system (eV)
  ---------------------------------------------------
  alpha Z        PSCENC =       436.63449077
  Ewald energy   TEWEN  =     -6479.09538156
  -Hartree energ DENC   =     -7598.03516689
  -exchange      EXHF   =         0.00000000
  -V(xc)+E(xc)   XCENC  =      1175.54983974
  PAW double counting   =     23534.10162865   -23603.98074890
  entropy T*S    EENTRO =         0.00000000
  eigenvalues    EBANDS =     -2510.04860300
  atomic energy  EATOM  =     14507.97142622
  Solvation  Ediel_sol  =         0.00000000
  ---------------------------------------------------
  free energy    TOTEN  =      -536.90251497 eV

  energy without entropy =     -536.90251497  energy(sigma->0) =     -536.90251497


--------------------------------------------------------------------------------------------------------




--------------------------------------- Iteration      1(   9)  ---------------------------------------


    POTLOK:  cpu time    0.5898: real time    0.5905
    SETDIJ:  cpu time    0.0255: real time    0.0255
    EDDIAG:  cpu time   15.7949: real time   15.7951
  RMM-DIIS:  cpu time  123.5120: real time  123.5205
    ORTHCH:  cpu time    3.0874: real time    3.0873
 BZINTS: Fermi energy: -0.610307;288.000000 electrons
         Band energy:***********;  BLOECHL correction:  0.000000
       DOS:  cpu time    0.0062: real time    0.0062
    CHARGE:  cpu time    4.5647: real time    4.5647
    MIXING:  cpu time    0.0130: real time    0.0129
    --------------------------------------------
      LOOP:  cpu time  147.5935: real time  147.6029

 eigenvalue-minimisations  :  8335
 total energy-change (2. order) :-0.1708847E-01  (-0.1933088E-01)
 number of electron     288.0000009 magnetization 
 augmentation part       19.8250689 magnetization 

 Broyden mixing:
  rms(total) = 0.56406E-01    rms(broyden)= 0.56403E-01
  rms(prec ) = 0.59314E-01
  weight for this iteration     100.00

 eigenvalues of (default mixing * dielectric matrix)
  average eigenvalue GAMMA=   1.6606
  1.1571  1.1571  2.1641  2.1641

 Free energy of the ion-electron system (eV)
  ---------------------------------------------------
  alpha Z        PSCENC =       436.63449077
  Ewald energy   TEWEN  =     -6479.09538156
  -Hartree energ DENC   =     -7606.76269505
  -exchange      EXHF   =         0.00000000
  -V(xc)+E(xc)   XCENC  =      1176.46577167
  PAW double counting   =     24165.21600876   -24234.92364211
  entropy T*S    EENTRO =         0.00000000
  eigenvalues    EBANDS =     -2502.42558214
  atomic energy  EATOM  =     14507.97142622
  Solvation  Ediel_sol  =         0.00000000
  ---------------------------------------------------
  free energy    TOTEN  =      -536.91960344 eV

  energy without entropy =     -536.91960344  energy(sigma->0) =     -536.91960344


--------------------------------------------------------------------------------------------------------




--------------------------------------- Iteration      1(  10)  ---------------------------------------


    POTLOK:  cpu time    0.6050: real time    0.6061
    SETDIJ:  cpu time    0.0256: real time    0.0256
    EDDIAG:  cpu time   15.7101: real time   15.7102
  RMM-DIIS:  cpu time  123.7055: real time  123.7050
    ORTHCH:  cpu time    3.0802: real time    3.0805
 BZINTS: Fermi energy: -0.626395;288.000000 electrons
         Band energy:***********;  BLOECHL correction:  0.000000
       DOS:  cpu time    0.0063: real time    0.0063
    CHARGE:  cpu time    4.5717: real time    4.5720
    MIXING:  cpu time    0.0132: real time    0.0132
    --------------------------------------------
      LOOP:  cpu time  147.7177: real time  147.7190

 eigenvalue-minimisations  :  8328
 total energy-change (2. order) :-0.1150631E-01  (-0.2399832E-02)
 number of electron     288.0000009 magnetization 
 augmentation part       19.8332622 magnetization 

 Broyden mixing:
  rms(total) = 0.20762E-01    rms(broyden)= 0.20761E-01
  rms(prec ) = 0.22906E-01
  weight for this iteration     100.00

 eigenvalues of (default mixing * dielectric matrix)
  average eigenvalue GAMMA=   1.7674
  1.1146  1.1146  2.4696  2.0692  2.0692

 Free energy of the ion-electron system (eV)
  ---------------------------------------------------
  alpha Z        PSCENC =       436.63449077
  Ewald energy   TEWEN  =     -6479.09538156
  -Hartree energ DENC   =     -7604.53991509
  -exchange      EXHF   =         0.00000000
  -V(xc)+E(xc)   XCENC  =      1176.27905422
  PAW double counting   =     24168.45046873   -24238.00356800
  entropy T*S    EENTRO =         0.00000000
  eigenvalues    EBANDS =     -2504.62768505
  atomic energy  EATOM  =     14507.97142622
  Solvation  Ediel_sol  =         0.00000000
  ---------------------------------------------------
  free energy    TOTEN  =      -536.93110975 eV

  energy without entropy =     -536.93110975  energy(sigma->0) =     -536.93110975


--------------------------------------------------------------------------------------------------------




--------------------------------------- Iteration      1(  11)  ---------------------------------------


    POTLOK:  cpu time    0.5948: real time    0.5957
    SETDIJ:  cpu time    0.0255: real time    0.0255
    EDDIAG:  cpu time   15.5992: real time   15.5998
  RMM-DIIS:  cpu time  123.2908: real time  123.2906
    ORTHCH:  cpu time    3.1384: real time    3.1384
 BZINTS: Fermi energy: -0.591062;288.000000 electrons
         Band energy:***********;  BLOECHL correction:  0.000000
       DOS:  cpu time    0.0055: real time    0.0055
    CHARGE:  cpu time    4.9543: real time    4.9546
    MIXING:  cpu time    0.0140: real time    0.0140
    --------------------------------------------
      LOOP:  cpu time  147.6226: real time  147.6240

 eigenvalue-minimisations  :  8347
 total energy-change (2. order) :-0.2491704E-02  (-0.8889849E-03)
 number of electron     288.0000009 magnetization 
 augmentation part       19.8339280 magnetization 

 Broyden mixing:
  rms(total) = 0.91917E-02    rms(broyden)= 0.91913E-02
  rms(prec ) = 0.10194E-01
  weight for this iteration     100.00

 eigenvalues of (default mixing * dielectric matrix)
  average eigenvalue GAMMA=   1.6933
  2.5757  2.4528  1.7079  0.9805  1.2214  1.2214

 Free energy of the ion-electron system (eV)
  ---------------------------------------------------
  alpha Z        PSCENC =       436.63449077
  Ewald energy   TEWEN  =     -6479.09538156
  -Hartree energ DENC   =     -7609.02475872
  -exchange      EXHF   =         0.00000000
  -V(xc)+E(xc)   XCENC  =      1176.50625684
  PAW double counting   =     24173.40313083   -24242.97381134
  entropy T*S    EENTRO =         0.00000000
  eigenvalues    EBANDS =     -2500.35495449
  atomic energy  EATOM  =     14507.97142622
  Solvation  Ediel_sol  =         0.00000000
  ---------------------------------------------------
  free energy    TOTEN  =      -536.93360145 eV

  energy without entropy =     -536.93360145  energy(sigma->0) =     -536.93360145


--------------------------------------------------------------------------------------------------------




--------------------------------------- Iteration      1(  12)  ---------------------------------------


    POTLOK:  cpu time    0.6267: real time    0.6274
    SETDIJ:  cpu time    0.0262: real time    0.0262
    EDDIAG:  cpu time   16.0285: real time   16.0287
  RMM-DIIS:  cpu time  121.7627: real time  121.7623
    ORTHCH:  cpu time    2.9272: real time    2.9271
 BZINTS: Fermi energy: -0.598153;288.000000 electrons
         Band energy:***********;  BLOECHL correction:  0.000000
       DOS:  cpu time    0.0053: real time    0.0053
    CHARGE:  cpu time    3.6302: real time    3.6303
    MIXING:  cpu time    0.0133: real time    0.0133
    --------------------------------------------
      LOOP:  cpu time  145.0201: real time  145.0205

 eigenvalue-minimisations  :  8656
 total energy-change (2. order) :-0.6631815E-04  (-0.1089559E-03)
 number of electron     288.0000009 magnetization 
 augmentation part       19.8297877 magnetization 

 Broyden mixing:
  rms(total) = 0.32600E-02    rms(broyden)= 0.32598E-02
  rms(prec ) = 0.38169E-02
  weight for this iteration     100.00

 eigenvalues of (default mixing * dielectric matrix)
  average eigenvalue GAMMA=   1.7487
  2.8151  2.2135  2.2135  1.6313  1.0139  1.1767  1.1767

 Free energy of the ion-electron system (eV)
  ---------------------------------------------------
  alpha Z        PSCENC =       436.63449077
  Ewald energy   TEWEN  =     -6479.09538156
  -Hartree energ DENC   =     -7609.31170733
  -exchange      EXHF   =         0.00000000
  -V(xc)+E(xc)   XCENC  =      1176.52292054
  PAW double counting   =     24163.25350460   -24232.82071416
  entropy T*S    EENTRO =         0.00000000
  eigenvalues    EBANDS =     -2500.08820684
  atomic energy  EATOM  =     14507.97142622
  Solvation  Ediel_sol  =         0.00000000
  ---------------------------------------------------
  free energy    TOTEN  =      -536.93366777 eV

  energy without entropy =     -536.93366777  energy(sigma->0) =     -536.93366777


--------------------------------------------------------------------------------------------------------




--------------------------------------- Iteration      1(  13)  ---------------------------------------


    POTLOK:  cpu time    0.5349: real time    0.5355
    SETDIJ:  cpu time    0.0254: real time    0.0254
    EDDIAG:  cpu time   13.8917: real time   13.8916
  RMM-DIIS:  cpu time  118.1495: real time  118.1474
    ORTHCH:  cpu time    2.9859: real time    2.9858
 BZINTS: Fermi energy: -0.603526;288.000000 electrons
         Band energy:***********;  BLOECHL correction:  0.000000
       DOS:  cpu time    0.0053: real time    0.0053
    CHARGE:  cpu time    3.9281: real time    3.9283
    MIXING:  cpu time    0.0142: real time    0.0142
    --------------------------------------------
      LOOP:  cpu time  139.5350: real time  139.5337

 eigenvalue-minimisations  :  8596
 total energy-change (2. order) :-0.1247224E-04  (-0.2783835E-04)
 number of electron     288.0000009 magnetization 
 augmentation part       19.8309602 magnetization 

 Broyden mixing:
  rms(total) = 0.15008E-02    rms(broyden)= 0.15007E-02
  rms(prec ) = 0.17916E-02
  weight for this iteration     100.00

 eigenvalues of (default mixing * dielectric matrix)
  average eigenvalue GAMMA=   1.7295
  3.0411  2.4384  1.9394  1.5733  1.5733  0.9978  1.1363  1.1363

 Free energy of the ion-electron system (eV)
  ---------------------------------------------------
  alpha Z        PSCENC =       436.63449077
  Ewald energy   TEWEN  =     -6479.09538156
  -Hartree energ DENC   =     -7609.15868810
  -exchange      EXHF   =         0.00000000
  -V(xc)+E(xc)   XCENC  =      1176.51759275
  PAW double counting   =     24158.57526255   -24228.13444835
  entropy T*S    EENTRO =         0.00000000
  eigenvalues    EBANDS =     -2500.24393452
  atomic energy  EATOM  =     14507.97142622
  Solvation  Ediel_sol  =         0.00000000
  ---------------------------------------------------
  free energy    TOTEN  =      -536.93368024 eV

  energy without entropy =     -536.93368024  energy(sigma->0) =     -536.93368024


--------------------------------------------------------------------------------------------------------




--------------------------------------- Iteration      1(  14)  ---------------------------------------


    POTLOK:  cpu time    0.5639: real time    0.5648
    SETDIJ:  cpu time    0.0253: real time    0.0256
    EDDIAG:  cpu time   14.0006: real time   14.0005
  RMM-DIIS:  cpu time  112.9046: real time  112.9032
    ORTHCH:  cpu time    2.9658: real time    2.9657
 BZINTS: Fermi energy: -0.606398;288.000000 electrons
         Band energy:***********;  BLOECHL correction:  0.000000
       DOS:  cpu time    0.0053: real time    0.0053
    CHARGE:  cpu time    3.9111: real time    3.9111
    MIXING:  cpu time    0.0156: real time    0.0156
    --------------------------------------------
      LOOP:  cpu time  134.3923: real time  134.3918

 eigenvalue-minimisations  :  8258
 total energy-change (2. order) : 0.6548682E-05  (-0.5439804E-05)
 number of electron     288.0000009 magnetization 
 augmentation part       19.8302948 magnetization 

 Broyden mixing:
  rms(total) = 0.75748E-03    rms(broyden)= 0.75743E-03
  rms(prec ) = 0.93967E-03
  weight for this iteration     100.00

 eigenvalues of (default mixing * dielectric matrix)
  average eigenvalue GAMMA=   1.7745
  3.2956  2.5982  2.1175  2.1175  1.3208  1.3208  0.9621  1.1014  1.1361

 Free energy of the ion-electron system (eV)
  ---------------------------------------------------
  alpha Z        PSCENC =       436.63449077
  Ewald energy   TEWEN  =     -6479.09538156
  -Hartree energ DENC   =     -7609.40221216
  -exchange      EXHF   =         0.00000000
  -V(xc)+E(xc)   XCENC  =      1176.52790558
  PAW double counting   =     24155.76380773   -24225.32616261
  entropy T*S    EENTRO =         0.00000000
  eigenvalues    EBANDS =     -2500.00754765
  atomic energy  EATOM  =     14507.97142622
  Solvation  Ediel_sol  =         0.00000000
  ---------------------------------------------------
  free energy    TOTEN  =      -536.93367370 eV

  energy without entropy =     -536.93367370  energy(sigma->0) =     -536.93367370


--------------------------------------------------------------------------------------------------------




--------------------------------------- Iteration      1(  15)  ---------------------------------------


    POTLOK:  cpu time    0.5604: real time    0.5612
    SETDIJ:  cpu time    0.0272: real time    0.0272
    EDDIAG:  cpu time   13.8738: real time   13.8736
  RMM-DIIS:  cpu time   93.0268: real time   93.0243
    ORTHCH:  cpu time    2.9142: real time    2.9141
 BZINTS: Fermi energy: -0.608755;288.000000 electrons
         Band energy:***********;  BLOECHL correction:  0.000000
       DOS:  cpu time    0.0053: real time    0.0053
    --------------------------------------------
      LOOP:  cpu time  110.4077: real time  110.4057

 eigenvalue-minimisations  :  6689
 total energy-change (2. order) : 0.4361929E-05  (-0.1460800E-05)
 number of electron     288.0000009 magnetization 
 augmentation part       19.8302948 magnetization 

 Free energy of the ion-electron system (eV)
  ---------------------------------------------------
  alpha Z        PSCENC =       436.63449077
  Ewald energy   TEWEN  =     -6479.09538156
  -Hartree energ DENC   =     -7609.34824110
  -exchange      EXHF   =         0.00000000
  -V(xc)+E(xc)   XCENC  =      1176.52499900
  PAW double counting   =     24155.83706733   -24225.39806602
  entropy T*S    EENTRO =         0.00000000
  eigenvalues    EBANDS =     -2500.05996397
  atomic energy  EATOM  =     14507.97142622
  Solvation  Ediel_sol  =         0.00000000
  ---------------------------------------------------
  free energy    TOTEN  =      -536.93366933 eV

  energy without entropy =     -536.93366933  energy(sigma->0) =     -536.93366933


--------------------------------------------------------------------------------------------------------




 average (electrostatic) potential at core
  the test charge radii are     0.5201  0.6991  0.7215
  (the norm of the test charge is              1.0000)
       1 -38.4152       2 -38.4152       3 -38.1006       4 -38.1006       5 -41.7748
       6 -41.7748       7 -38.1361       8 -38.1361       9 -41.6612      10 -41.6612
      11 -38.0353      12 -38.0353      13 -41.7534      14 -41.7534      15 -37.9730
      16 -37.9730      17 -37.9302      18 -37.9302      19 -37.8066      20 -37.8066
      21 -41.7404      22 -41.7404      23 -38.0298      24 -38.0298      25 -41.7948
      26 -41.7948      27 -37.8211      28 -37.8211      29 -41.8669      30 -41.8669
      31 -38.0437      32 -38.0437      33 -41.8977      34 -41.8977      35 -38.3709
      36 -38.3709      37 -37.9904      38 -37.9904      39 -37.9422      40 -37.9422
      41 -37.8574      42 -37.8574      43 -41.7025      44 -41.7025      45 -41.6147
      46 -41.6147      47 -41.1322      48 -41.1322      49 -55.7765      50 -55.7765
      51 -54.6041      52 -54.6041      53 -54.5631      54 -54.5631      55 -54.5433
      56 -54.5433      57 -54.5529      58 -54.5529      59 -54.1728      60 -54.1728
      61 -55.5339      62 -55.5339      63 -54.5296      64 -54.5296      65 -54.7032
      66 -54.7032      67 -54.8463      68 -54.8463      69 -54.5758      70 -54.5758
      71 -54.1709      72 -54.1709      73 -75.8985      74 -75.8985      75 -75.4877
      76 -75.4877      77 -75.3595      78 -75.3595      79 -75.2485      80 -75.2485
      81 -75.3788      82 -75.3788      83 -75.5988      84 -75.5988      85 -75.4314
      86 -75.4314      87 -75.5622      88 -75.5622      89 -75.5461      90 -75.5461
      91 -75.3267      92 -75.3267      93 -75.5081      94 -75.5081      95 -75.3367
      96 -75.3367



 E-fermi :  -0.6088     XC(G=0):  -8.3246     alpha+bet : -7.1900


 k-point     1 :       0.0000    0.0000    0.0000
  band No.  band energies     occupation 
      1     -22.2945      2.00000
      2     -22.2737      2.00000
      3     -22.1476      2.00000
      4     -22.1140      2.00000
      5     -21.6124      2.00000
      6     -21.6040      2.00000
      7     -21.4996      2.00000
      8     -21.4622      2.00000
      9     -21.4091      2.00000
     10     -21.3662      2.00000
     11     -21.2157      2.00000
     12     -21.1766      2.00000
     13     -21.0716      2.00000
     14     -21.0424      2.00000
     15     -21.0388      2.00000
     16     -21.0375      2.00000
     17     -21.0072      2.00000
     18     -21.0035      2.00000
     19     -20.7315      2.00000
     20     -20.7251      2.00000
     21     -20.4004      2.00000
     22     -20.3947      2.00000
     23     -20.2184      2.00000
     24     -20.2161      2.00000
     25     -15.1849      2.00000
     26     -15.1828      2.00000
     27     -14.8081      2.00000
     28     -14.8065      2.00000
     29     -14.4847      2.00000
     30     -14.4812      2.00000
     31     -14.2098      2.00000
     32     -14.1992      2.00000
     33     -12.6768      2.00000
     34     -12.6658      2.00000
     35     -12.3975      2.00000
     36     -12.3467      2.00000
     37     -11.6791      2.00000
     38     -11.6312      2.00000
     39     -10.8923      2.00000
     40     -10.8498      2.00000
     41     -10.7552      2.00000
     42     -10.7386      2.00000
     43     -10.4685      2.00000
     44     -10.4627      2.00000
     45     -10.1402      2.00000
     46     -10.1384      2.00000
     47      -9.7649      2.00000
     48      -9.7530      2.00000
     49      -9.2337      2.00000
     50      -9.2311      2.00000
     51      -8.8706      2.00000
     52      -8.8657      2.00000
     53      -8.8153      2.00000
     54      -8.7789      2.00000
     55      -8.5779      2.00000
     56      -8.5766      2.00000
     57      -8.3272      2.00000
     58      -8.2969      2.00000
     59      -8.2645      2.00000
     60      -8.2226      2.00000
     61      -8.0618      2.00000
     62      -8.0525      2.00000
     63      -8.0160      2.00000
     64      -7.9618      2.00000
     65      -7.8721      2.00000
     66      -7.8229      2.00000
     67      -7.4610      2.00000
     68      -7.4460      2.00000
     69      -7.3024      2.00000
     70      -7.2139      2.00000
     71      -7.1972      2.00000
     72      -7.1810      2.00000
     73      -6.5036      2.00000
     74      -6.4353      2.00000
     75      -6.3869      2.00000
     76      -6.3163      2.00000
     77      -6.1078      2.00000
     78      -6.0616      2.00000
     79      -5.7992      2.00000
     80      -5.7832      2.00000
     81      -5.7518      2.00000
     82      -5.7203      2.00000
     83      -5.6573      2.00000
     84      -5.6178      2.00000
     85      -5.4362      2.00000
     86      -5.3921      2.00000
     87      -5.3699      2.00000
     88      -5.3328      2.00000
     89      -5.2463      2.00000
     90      -5.2212      2.00000
     91      -4.9802      2.00000
     92      -4.9798      2.00000
     93      -4.8238      2.00000
     94      -4.8194      2.00000
     95      -4.6064      2.00000
     96      -4.5797      2.00000
     97      -4.4827      2.00000
     98      -4.4461      2.00000
     99      -4.3546      2.00000
    100      -4.2922      2.00000
    101      -4.1866      2.00000
    102      -4.0756      2.00000
    103      -3.9405      2.00000
    104      -3.8655      2.00000
    105      -3.6581      2.00000
    106      -3.5887      2.00000
    107      -3.3053      2.00000
    108      -3.2491      2.00000
    109      -3.2322      2.00000
    110      -3.1222      2.00000
    111      -3.0739      2.00000
    112      -3.0039      2.00000
    113      -2.9875      2.00000
    114      -2.9562      2.00000
    115      -2.8118      2.00000
    116      -2.7605      2.00000
    117      -2.6216      2.00000
    118      -2.5893      2.00000
    119      -2.4948      2.00000
    120      -2.4771      2.00000
    121      -2.3710      2.00000
    122      -2.3510      2.00000
    123      -2.1620      2.00000
    124      -2.1290      2.00000
    125      -2.0993      2.00000
    126      -2.0322      2.00000
    127      -1.9715      2.00000
    128      -1.9551      2.00000
    129      -1.8948      2.00000
    130      -1.8497      2.00000
    131      -1.7363      2.00000
    132      -1.7091      2.00000
    133      -1.5178      2.00000
    134      -1.4739      2.00000
    135      -1.4179      2.00000
    136      -1.3991      2.00000
    137      -1.0941      2.00000
    138      -1.0909      2.00000
    139      -0.9538      2.00000
    140      -0.9200      2.00000
    141      -0.8333      2.00000
    142      -0.8279      2.00000
    143      -0.6870      2.00000
    144      -0.6615      2.00000
    145       5.3224      0.00000
    146       5.3677      0.00000
    147       5.4476      0.00000
    148       5.5232      0.00000
    149       5.9040      0.00000
    150       5.9566      0.00000
    151       6.1056      0.00000
    152       6.2160      0.00000
    153       6.2368      0.00000
    154       6.4571      0.00000
    155       6.4990      0.00000
    156       6.5648      0.00000
    157       6.6194      0.00000
    158       6.8079      0.00000
    159       7.0199      0.00000
    160       7.1541      0.00000
    161       7.2249      0.00000
    162       7.2396      0.00000
    163       7.5875      0.00000
    164       7.6452      0.00000
    165       7.7883      0.00000
    166       7.7905      0.00000
    167       7.9856      0.00000
    168       7.9957      0.00000
    169       8.2026      0.00000
    170       8.2428      0.00000
    171       8.2468      0.00000
    172       8.3952      0.00000
    173       8.5133      0.00000
    174       8.6058      0.00000
    175       8.7688      0.00000
    176       8.7720      0.00000
    177       8.8815      0.00000
    178       9.0983      0.00000
    179       9.1862      0.00000
    180       9.1895      0.00000
    181       9.3262      0.00000
    182       9.4541      0.00000
    183       9.4953      0.00000
    184       9.5304      0.00000
    185       9.5975      0.00000
    186       9.6322      0.00000
    187       9.8913      0.00000
    188       9.9465      0.00000
    189      10.0032      0.00000
    190      10.0077      0.00000
    191      10.0581      0.00000
    192      10.1338      0.00000
    193      10.1936      0.00000
    194      10.5526      0.00000

 k-point     2 :       0.1429    0.0000    0.0000
  band No.  band energies     occupation 
      1     -22.2837      2.00000
      2     -22.2641      2.00000
      3     -22.1357      2.00000
      4     -22.1044      2.00000
      5     -21.6041      2.00000
      6     -21.5823      2.00000
      7     -21.4996      2.00000
      8     -21.4438      2.00000
      9     -21.3959      2.00000
     10     -21.3530      2.00000
     11     -21.2177      2.00000
     12     -21.1785      2.00000
     13     -21.1140      2.00000
     14     -21.0854      2.00000
     15     -21.0364      2.00000
     16     -21.0314      2.00000
     17     -20.9984      2.00000
     18     -20.9870      2.00000
     19     -20.7511      2.00000
     20     -20.7437      2.00000
     21     -20.4040      2.00000
     22     -20.3986      2.00000
     23     -20.2287      2.00000
     24     -20.2267      2.00000
     25     -15.1814      2.00000
     26     -15.1788      2.00000
     27     -14.8124      2.00000
     28     -14.8099      2.00000
     29     -14.4939      2.00000
     30     -14.4907      2.00000
     31     -14.2095      2.00000
     32     -14.1991      2.00000
     33     -12.6927      2.00000
     34     -12.6814      2.00000
     35     -12.4068      2.00000
     36     -12.3559      2.00000
     37     -11.6851      2.00000
[...]
   0.257E+02 0.782E+02 0.256E+01   -.292E+02 -.895E+02 -.330E+01   0.206E+01 0.737E+01 0.810E+00   -.226E-04 -.109E-02 -.715E-04
   0.507E+02 0.431E+02 0.707E+02   -.601E+02 -.519E+02 -.922E+02   0.529E+01 0.470E+01 0.117E+02   -.105E-04 -.595E-04 0.243E-03
   -.507E+02 0.431E+02 -.707E+02   0.601E+02 -.519E+02 0.922E+02   -.529E+01 0.470E+01 -.117E+02   0.105E-04 -.595E-04 -.243E-03
   -.654E+02 0.165E+02 -.889E+01   0.771E+02 -.182E+02 0.914E+01   -.763E+01 0.942E+00 -.114E+00   0.394E-03 0.449E-03 0.216E-03
   0.654E+02 0.165E+02 0.889E+01   -.771E+02 -.182E+02 -.914E+01   0.763E+01 0.942E+00 0.114E+00   -.394E-03 0.449E-03 -.216E-03
   0.838E+02 -.288E+02 -.275E+02   -.106E+03 0.390E+02 0.330E+02   0.121E+02 -.557E+01 -.303E+01   0.747E-04 0.398E-03 0.100E-03
   -.838E+02 -.288E+02 0.275E+02   0.106E+03 0.390E+02 -.330E+02   -.121E+02 -.557E+01 0.303E+01   -.747E-04 0.398E-03 -.100E-03
   0.717E+02 -.264E+02 -.125E+02   -.834E+02 0.285E+02 0.134E+02   0.738E+01 -.128E+01 -.599E+00   -.301E-03 0.131E-02 0.282E-03
   -.717E+02 -.264E+02 0.125E+02   0.834E+02 0.285E+02 -.134E+02   -.738E+01 -.128E+01 0.599E+00   0.301E-03 0.131E-02 -.282E-03
   0.269E+01 -.914E+02 -.171E+02   -.362E+01 0.116E+03 0.141E+02   0.442E+00 -.135E+02 0.157E+01   0.564E-04 0.735E-03 0.261E-03
   -.269E+01 -.914E+02 0.171E+02   0.362E+01 0.116E+03 -.141E+02   -.442E+00 -.135E+02 -.157E+01   -.564E-04 0.735E-03 -.261E-03
   -.757E+02 -.537E+00 0.675E+01   0.875E+02 -.179E+00 -.707E+01   -.746E+01 0.493E+00 0.211E+00   0.491E-03 0.127E-02 0.825E-04
   0.757E+02 -.537E+00 -.675E+01   -.875E+02 -.179E+00 0.707E+01   0.746E+01 0.493E+00 -.211E+00   -.491E-03 0.127E-02 -.825E-04
   0.728E+02 -.218E+02 0.134E+02   -.845E+02 0.228E+02 -.134E+02   0.747E+01 -.580E+00 0.134E-01   -.507E-03 0.109E-02 -.170E-03
   -.728E+02 -.218E+02 -.134E+02   0.845E+02 0.228E+02 0.134E+02   -.747E+01 -.580E+00 -.134E-01   0.507E-03 0.109E-02 0.170E-03
   0.375E+01 -.631E+02 0.228E+02   -.570E+01 0.751E+02 -.248E+02   0.111E+01 -.751E+01 0.129E+01   0.293E-04 0.123E-02 -.262E-03
   -.375E+01 -.631E+02 -.228E+02   0.570E+01 0.751E+02 0.248E+02   -.111E+01 -.751E+01 -.129E+01   -.293E-04 0.123E-02 0.262E-03
   -.660E+02 -.833E+01 0.670E+01   0.782E+02 0.620E+01 -.725E+01   -.759E+01 0.115E+01 0.299E+00   0.466E-04 0.112E-02 -.245E-03
   0.660E+02 -.833E+01 -.670E+01   -.782E+02 0.620E+01 0.725E+01   0.759E+01 0.115E+01 -.299E+00   -.466E-04 0.112E-02 0.245E-03
   0.557E+02 -.551E+02 0.417E+02   -.720E+02 0.690E+02 -.543E+02   0.896E+01 -.753E+01 0.704E+01   0.681E-04 0.108E-02 -.416E-05
   -.557E+02 -.551E+02 -.417E+02   0.720E+02 0.690E+02 0.543E+02   -.896E+01 -.753E+01 -.704E+01   -.681E-04 0.108E-02 0.416E-05
   0.160E+02 -.581E+02 -.655E+02   -.196E+02 0.737E+02 0.831E+02   0.213E+01 -.876E+01 -.988E+01   0.255E-04 -.414E-03 -.265E-03
   -.160E+02 -.581E+02 0.655E+02   0.196E+02 0.737E+02 -.831E+02   -.213E+01 -.876E+01 0.988E+01   -.255E-04 -.414E-03 0.265E-03
   -.635E+02 0.469E+02 -.258E+01   0.827E+02 -.587E+02 0.556E+01   -.109E+02 0.686E+01 -.161E+01   -.232E-03 -.626E-03 -.701E-04
   0.635E+02 0.469E+02 0.258E+01   -.827E+02 -.587E+02 -.556E+01   0.109E+02 0.686E+01 0.161E+01   0.232E-03 -.626E-03 0.701E-04
   -.891E+02 0.173E+02 0.325E+02   0.923E+02 -.133E+02 -.366E+02   -.725E+01 -.265E+01 0.443E+01   0.220E-03 -.599E-03 0.303E-03
   0.891E+02 0.173E+02 -.325E+02   -.923E+02 -.133E+02 0.366E+02   0.725E+01 -.265E+01 -.443E+01   -.220E-03 -.599E-03 -.303E-03
   0.504E+02 -.151E+02 0.239E+02   -.502E+02 0.168E+02 -.187E+02   0.372E+01 -.271E+01 -.508E+01   -.983E-03 -.227E-02 -.229E-02
   -.504E+02 -.151E+02 -.239E+02   0.502E+02 0.168E+02 0.187E+02   -.372E+01 -.271E+01 0.508E+01   0.983E-03 -.227E-02 0.229E-02
   -.882E+02 0.825E+01 0.694E+01   0.873E+02 -.117E+02 -.293E+01   -.313E+01 0.426E+01 -.372E+01   0.950E-04 -.351E-02 -.134E-02
   0.882E+02 0.825E+01 -.694E+01   -.873E+02 -.117E+02 0.293E+01   0.313E+01 0.426E+01 0.372E+01   -.950E-04 -.351E-02 0.134E-02
   -.953E+02 -.616E+02 -.445E+02   0.993E+02 0.587E+02 0.430E+02   -.656E+01 -.120E+00 0.458E+00   -.844E-03 -.268E-02 0.680E-03
   0.953E+02 -.616E+02 0.445E+02   -.993E+02 0.587E+02 -.430E+02   0.656E+01 -.120E+00 -.458E+00   0.844E-03 -.268E-02 -.680E-03
   -.109E+03 -.247E+02 -.653E+02   0.110E+03 0.296E+02 0.679E+02   -.512E+01 -.398E+01 -.221E+01   0.194E-03 -.417E-02 0.186E-02
   0.109E+03 -.247E+02 0.653E+02   -.110E+03 0.296E+02 -.679E+02   0.512E+01 -.398E+01 0.221E+01   -.194E-03 -.417E-02 -.186E-02
   -.666E+00 -.904E+02 -.433E+02   0.318E-01 0.927E+02 0.395E+02   0.186E+01 -.680E+01 0.194E+01   -.403E-03 -.438E-02 0.147E-02
   0.666E+00 -.904E+02 0.433E+02   -.318E-01 0.927E+02 -.395E+02   -.186E+01 -.680E+01 -.194E+01   0.403E-03 -.438E-02 -.147E-02
   -.468E+02 0.132E+03 -.281E+02   0.504E+02 -.133E+03 0.329E+02   -.463E+01 0.478E+01 -.481E+01   -.854E-03 -.106E-02 -.303E-04
   0.468E+02 0.132E+03 0.281E+02   -.504E+02 -.133E+03 -.329E+02   0.463E+01 0.478E+01 0.481E+01   0.854E-03 -.106E-02 0.303E-04
   -.712E+02 0.235E+02 -.164E+02   0.720E+02 -.219E+02 0.114E+02   -.434E+01 -.110E+01 0.488E+01   0.258E-03 0.214E-02 0.176E-02
   0.712E+02 0.235E+02 0.164E+02   -.720E+02 -.219E+02 -.114E+02   0.434E+01 -.110E+01 -.488E+01   -.258E-03 0.214E-02 -.176E-02
   0.652E+02 -.388E+02 -.216E+02   -.663E+02 0.360E+02 0.174E+02   0.477E+01 0.201E+01 0.409E+01   -.212E-03 0.560E-02 0.207E-02
   -.652E+02 -.388E+02 0.216E+02   0.663E+02 0.360E+02 -.174E+02   -.477E+01 0.201E+01 -.409E+01   0.212E-03 0.560E-02 -.207E-02
   -.597E+02 0.100E+01 0.134E+02   0.592E+02 -.653E+01 -.126E+02   -.342E+01 0.580E+01 -.754E+00   0.957E-03 0.594E-02 0.509E-03
   0.597E+02 0.100E+01 -.134E+02   -.592E+02 -.653E+01 0.126E+02   0.342E+01 0.580E+01 0.754E+00   -.957E-03 0.594E-02 -.509E-03
   0.544E+02 -.782E+02 0.619E+02   -.538E+02 0.835E+02 -.641E+02   0.330E+01 -.575E+01 0.232E+01   -.569E-03 0.378E-02 -.132E-02
   -.544E+02 -.782E+02 -.619E+02   0.538E+02 0.835E+02 0.641E+02   -.330E+01 -.575E+01 -.232E+01   0.569E-03 0.378E-02 0.132E-02
   -.619E+02 -.100E+03 0.309E+02   0.629E+02 0.101E+03 -.268E+02   -.466E+01 -.449E+01 -.317E+01   0.238E-03 0.447E-02 -.174E-02
   0.619E+02 -.100E+03 -.309E+02   -.629E+02 0.101E+03 0.268E+02   0.466E+01 -.449E+01 0.317E+01   -.238E-03 0.447E-02 0.174E-02
   0.179E+03 -.226E+02 0.880E+02   -.217E+03 0.292E+02 -.104E+03   0.375E+02 -.665E+01 0.159E+02   -.202E-02 0.474E-02 -.139E-03
   -.179E+03 -.226E+02 -.880E+02   0.217E+03 0.292E+02 0.104E+03   -.375E+02 -.665E+01 -.159E+02   0.202E-02 0.474E-02 0.139E-03
   -.911E+02 0.693E+02 0.175E+03   0.141E+03 -.720E+02 -.178E+03   -.407E+02 0.460E+01 0.958E+01   0.120E-03 -.213E-02 -.326E-02
   0.911E+02 0.693E+02 -.175E+03   -.141E+03 -.720E+02 0.178E+03   0.407E+02 0.460E+01 -.958E+01   -.120E-03 -.213E-02 0.326E-02
   0.575E+02 -.746E+02 0.141E+03   -.107E+03 0.711E+02 -.154E+03   0.401E+02 -.282E+01 0.155E+02   -.165E-03 -.555E-02 -.122E-02
   -.575E+02 -.746E+02 -.141E+03   0.107E+03 0.711E+02 0.154E+03   -.401E+02 -.282E+01 -.155E+02   0.165E-03 -.555E-02 0.122E-02
   0.185E+03 -.526E+01 -.810E+02   -.215E+03 -.366E+02 0.946E+02   0.314E+02 0.309E+02 -.115E+02   -.122E-02 -.588E-02 0.714E-03
   -.185E+03 -.526E+01 0.810E+02   0.215E+03 -.366E+02 -.946E+02   -.314E+02 0.309E+02 0.115E+02   0.122E-02 -.588E-02 -.714E-03
   -.638E+02 0.122E+03 -.451E+02   0.108E+03 -.143E+03 0.324E+02   -.351E+02 0.234E+02 0.641E+01   -.189E-03 -.183E-02 -.220E-03
   0.638E+02 0.122E+03 0.451E+02   -.108E+03 -.143E+03 -.324E+02   0.351E+02 0.234E+02 -.641E+01   0.189E-03 -.183E-02 0.220E-03
   0.111E+03 0.734E+02 -.159E+03   -.140E+03 -.883E+02 0.183E+03   0.294E+02 0.149E+02 -.237E+02   -.208E-02 -.224E-02 0.364E-02
   -.111E+03 0.734E+02 0.159E+03   0.140E+03 -.883E+02 -.183E+03   -.294E+02 0.149E+02 0.237E+02   0.208E-02 -.224E-02 -.364E-02
   0.189E+03 0.520E+02 -.624E+02   -.207E+03 -.317E+02 0.108E+03   0.221E+02 -.160E+02 -.356E+02   -.206E-02 0.321E-03 0.292E-03
   -.189E+03 0.520E+02 0.624E+02   0.207E+03 -.317E+02 -.108E+03   -.221E+02 -.160E+02 0.356E+02   0.206E-02 0.321E-03 -.292E-03
   -.239E+02 0.930E+02 -.144E+03   0.577E+02 -.126E+03 0.165E+03   -.237E+02 0.281E+02 -.234E+02   -.129E-02 0.131E-02 0.128E-02
   0.239E+02 0.930E+02 0.144E+03   -.577E+02 -.126E+03 -.165E+03   0.237E+02 0.281E+02 0.234E+02   0.129E-02 0.131E-02 -.128E-02
   -.630E+02 -.769E+02 -.194E+03   0.810E+02 0.423E+02 0.228E+03   -.173E+02 0.236E+02 -.321E+02   0.540E-03 0.813E-02 0.162E-02
   0.630E+02 -.769E+02 0.194E+03   -.810E+02 0.423E+02 -.228E+03   0.173E+02 0.236E+02 0.321E+02   -.540E-03 0.813E-02 -.162E-02
   0.289E+02 0.526E+02 0.668E+02   -.123E+02 -.102E+03 -.649E+02   -.940E+01 0.430E+02 0.355E+01   0.236E-03 0.594E-02 -.177E-03
   -.289E+02 0.526E+02 -.668E+02   0.123E+02 -.102E+03 0.649E+02   0.940E+01 0.430E+02 -.355E+01   -.236E-03 0.594E-02 0.177E-03
   -.119E+03 0.130E+03 0.135E+03   0.143E+03 -.152E+03 -.162E+03   -.238E+02 0.223E+02 0.278E+02   0.569E-03 0.120E-02 -.234E-02
   0.119E+03 0.130E+03 -.135E+03   -.143E+03 -.152E+03 0.162E+03   0.238E+02 0.223E+02 -.278E+02   -.569E-03 0.120E-02 0.234E-02
   0.232E+02 0.342E+02 0.518E+02   -.555E+02 -.410E+02 -.965E+02   0.255E+02 0.490E+01 0.356E+02   -.468E-03 -.343E-02 -.480E-03
   -.232E+02 0.342E+02 -.518E+02   0.555E+02 -.410E+02 0.965E+02   -.255E+02 0.490E+01 -.356E+02   0.468E-03 -.343E-02 0.480E-03
 -----------------------------------------------------------------------------------------------
   -.301E-06 -.221E+03 -.228E-06   -.782E-13 -.142E-12 -.185E-12   0.142E-13 0.221E+03 0.000E+00   -.705E-13 0.429E-02 0.180E-12


 POSITION                                       TOTAL-FORCE (eV/Angst)
 -----------------------------------------------------------------------------------
      0.06631     20.88518      5.69024         4.164243     -1.506047     -0.220142
      2.58936     10.11518      1.77237        -4.164243     -1.506047      0.220142
      2.73644      1.06408      4.71786        -4.061565      1.009735     -0.020010
     -0.08077     11.83408      2.74475         4.061565      1.009735      0.020010
      3.41864      0.20032      2.99922        -9.219205     -1.816303     -6.265488
     -0.76297     10.97032      4.46339         9.219205     -1.816303      6.265488
      0.71369      1.84167      5.02831         4.163308     -0.835913     -0.376755
      1.94198     12.61167      2.43430        -4.163308     -0.835913      0.376755
      0.06569      3.57564      4.08503         9.111998      6.333801     -2.144218
      2.58998     14.34564      3.37758        -9.111998      6.333801      2.144218
      0.05220      3.18146      6.86560         2.606351      3.162933      1.128460
      2.60348     13.95146      0.59701        -2.606351      3.162933     -1.128460
      2.80444      3.64457      6.59172        -0.896591     11.014427     -2.054677
     -0.14877     14.41457      0.87089         0.896591     11.014427      2.054677
      0.66596      0.93699      7.38873         4.150752     -1.218011     -0.437099
      1.98971     11.70699      0.07388        -4.150752     -1.218011      0.437099
      2.12955      2.22293      1.80147         3.039491      3.426575      1.529285
      0.52612     12.99293      5.66113        -3.039491      3.426575     -1.529285
      0.59771      1.81151      1.56267        -4.484193      1.310934      0.422824
      2.05796     12.58151      5.89994         4.484193      1.310934     -0.422824
      1.06460      0.19171      2.74027        -8.992114     -1.628287      6.386742
      1.59107     10.96171      4.72234         8.992114     -1.628287     -6.386742
      2.93480     15.16416      6.11262         1.509572     -3.951652     -0.069448
     -0.27913      4.39416      1.34999        -1.509572     -3.951652      0.069448
      0.94949     15.88360      5.32532        -4.126761     -4.137735     -9.824392
      1.70618      5.11360      2.13729         4.126761     -4.137735      9.824392
     -0.61012     16.77751      7.25440         4.053156     -0.688646      0.139951
      3.26579      6.00751      0.20821        -4.053156     -0.688646     -0.139951
      4.04469     16.72796      1.15372       -10.148373      4.707973      2.481423
     -1.38902      5.95796      6.30889        10.148373      4.707973     -2.481423
      1.94068     18.56963      7.14694        -4.232030      0.861160      0.258918
      0.71499      7.79963      0.31567         4.232030      0.861160     -0.258918
      0.90504     19.89434      0.56343        -0.494027     11.107440     -1.400836
      1.75063      9.12434      6.89918         0.494027     11.107440      1.400836
     -0.36995     18.82165      5.67531         4.289297     -0.221659     -0.107907
      3.02562      8.05165      1.78729        -4.289297     -0.221659      0.107907
      1.83210     18.09575      4.59324        -4.246226      0.389851     -0.010343
      0.82357      7.32575      2.86937         4.246226      0.389851      0.010343
      3.19962     19.34507      3.04773        -0.832438      4.516625     -0.741063
     -0.54395      8.57507      4.41488         0.832438      4.516625      0.741063
     -0.44660     18.22284      3.18579         4.655087     -0.976152     -0.251508
      3.10227      7.45284      4.27682        -4.655087     -0.976152      0.251508
      2.16898     18.08498      1.78729        -7.316201      6.419221     -5.565415
      0.48669      7.31498      5.67531         7.316201      6.419221      5.565415
      1.65024      4.94128      4.59697        -1.410819      6.911092      7.743287
      1.00543     15.71128      2.86564         1.410819      6.911092     -7.743287
      2.48844      3.95259      4.08951         8.238053     -4.932121      1.372832
      0.16724     14.72259      3.37310        -8.238053     -4.932121     -1.372832
     -0.86857     21.23542      5.74994        -4.028407      1.361345      0.299443
      3.52424     10.46542      1.71267         4.028407      1.361345     -0.299443
     -1.07759      0.82024      4.74323         3.851236     -0.930961      0.078630
      3.73326     11.59024      2.71937        -3.851236     -0.930961     -0.078630
     -0.25940      2.04716      5.12980        -4.071386      0.815562      0.293886
      2.91507     12.81716      2.33281         4.071386      0.815562     -0.293886
     -0.54727      2.42950      6.59098        -2.473163     -3.021916     -1.123531
      3.20294     13.19950      0.87163         2.473163     -3.021916      1.123531
      1.83800      1.21916      0.01716        -3.850605      0.985221      0.398978
      0.81767     11.98916      7.44544         3.850605      0.985221     -0.398978
      1.53456      1.50392      1.47088         1.230363     -4.463426     -1.829809
      1.12111     12.27392      5.99173        -1.230363     -4.463426      1.829809
      2.65214     16.12032      6.02531        -1.067853      3.931094      0.027754
      0.00353      5.35032      1.43730         1.067853      3.931094     -0.027754
     -1.60195     16.90373      7.23201        -3.541131      0.484343     -0.165766
      4.25762      6.13373      0.23059         3.541131      0.484343      0.165766
     -1.86062     18.39624      7.07231         3.725159     -0.812574     -0.134493
      4.51629      7.62624      0.39029        -3.725159     -0.812574      0.134493
     -1.36806     18.87270      5.70516        -3.908982      0.283255      0.087329
      4.02373      8.10270      1.75744         3.908982      0.283255     -0.087329
      2.82872     18.01304      4.58876         3.877899     -0.434865      0.095764
     -0.17305      7.24304      2.87385        -3.877899     -0.434865     -0.095764
      3.35987     18.38202      3.21713        -3.670828     -3.330097      0.975587
     -0.70420      7.61202      4.24548         3.670828     -3.330097     -0.975587
      2.99659     20.22369      5.45293        -0.346343      0.035348     -0.109397
     -0.34091      9.45369      2.00968         0.346343      0.035348      0.109397
     -0.68267      0.34270      3.46862         9.470461      1.811193      6.058666
      3.33834     11.11270      3.99399        -9.470461      1.811193     -6.058666
     -0.61156      3.10413      4.24100        -9.188944     -6.301968      2.076706
      3.26724     13.87413      3.22161         9.188944     -6.301968     -2.076706
     -1.90674      2.82196      6.74247         0.642969    -10.921537      2.058306
      4.56241     13.59196      0.72014        -0.642969    -10.921537     -2.058306
      1.73204      0.31879      2.24625         9.062752      1.423341     -6.349098
      0.92363     11.08879      5.21636        -9.062752      1.423341      6.349098
     -1.14966      0.13247      7.07828        -0.057624      0.026590      0.163030
      3.80533     10.90247      0.38432         0.057624      0.026590     -0.163030
      1.25513     16.18106      6.04844         3.444117      4.283317      9.764268
      1.40054      5.41106      1.41416        -3.444117      4.283317     -9.764268
      0.00564     16.37557      0.99029        10.098747     -4.715354     -2.352638
      2.65003      5.60557      6.47232       -10.098747     -4.715354      2.352638
      0.94530     19.06290      0.68059         0.616388    -10.896243      1.491688
      1.71037      8.29290      6.78202        -0.616388    -10.896243     -1.491688
      2.71427     17.60313      2.20669         7.220410     -6.549763      5.394810
     -0.05859      6.83313      5.25591        -7.220410     -6.549763     -5.394810
      3.19420     16.64913      4.82681         0.244992     -0.440165     -0.045931
     -0.53853      5.87913      2.63579        -0.244992     -0.440165      0.045931
      1.76995      4.39438      3.96563        -6.732457     -1.880982     -9.078791
      0.88572     15.16438      3.49698         6.732457     -1.880982      9.078791
 -----------------------------------------------------------------------------------
    total drift:                               -0.000000      0.001516     -0.000000


--------------------------------------------------------------------------------------------------------



  FREE ENERGIE OF THE ION-ELECTRON SYSTEM (eV)
  ---------------------------------------------------
  free  energy   TOTEN  =      -536.93366933 eV

  energy  without entropy=     -536.93366933  energy(sigma->0) =     -536.93366933



--------------------------------------------------------------------------------------------------------


    POTLOK:  cpu time    0.5881: real time    0.5900


--------------------------------------------------------------------------------------------------------


 writing wavefunctions
     LOOP+:  cpu time 2526.9201: real time 2530.7409
    4ORBIT:  cpu time    0.0000: real time    0.0000
 BZINTS: Fermi energy: -0.608755;288.000000 electrons
         Band energy:***********;  BLOECHL correction:  0.000000

 total amount of memory used by VASP MPI-rank0   369634. kBytes
=======================================================================

   base      :      30000. kBytes
   nonl-proj :      40435. kBytes
   fftplans  :      24288. kBytes
   grid      :      44199. kBytes
   one-center:         73. kBytes
   wavefun   :     230639. kBytes

  
  
 General timing and accounting informations for this job:
 ========================================================
  
                  Total CPU time used (sec):     2564.245
                            User time (sec):     2529.566
                          System time (sec):       34.679
                         Elapsed time (sec):     2569.083
  
                   Maximum memory used (kb):      423308.
                   Average memory used (kb):           0.
  
                          Minor page faults:      1806977
                          Major page faults:            7
                 Voluntary context switches:         3200
