 vasp.5.4.4.18Apr17-6-g9f103f2a35 (build Nov 15 2018 18:01:47) complex           
 executed on             LinuxGNU date 2019.11.19  10:35:54
 running on    4 total cores
 distrk:  each k-point on    4 cores,    1 groups
 distr:  one band on NCORES_PER_BAND=   1 cores,    4 groups


--------------------------------------------------------------------------------------------------------


 INCAR:
 POTCAR:    PAW_PBE K_pv 17Jan2003                
 POTCAR:    PAW_PBE Br 06Sep2000                  
 POTCAR:    PAW_PBE K_pv 17Jan2003                
   VRHFIN =K:  p6s1                                                             
   LEXCH  = PE                                                                  
   EATOM  =   450.4813 eV,   33.1094 Ry                                         
                                                                                
   TITEL  = PAW_PBE K_pv 17Jan2003                                              
   LULTRA =        F    use ultrasoft PP ?                                      
   IUNSCR =        1    unscreen: 0-lin 1-nonlin 2-no                           
   RPACOR =    2.500    partial core radius                                     
   POMASS =   39.098; ZVAL   =    7.000    mass and valenz                      
   RCORE  =    3.100    outmost cutoff radius                                   
   RWIGS  =    4.300; RWIGS  =    2.275    wigner-seitz radius (au A)           
   ENMAX  =  116.731; ENMIN  =   87.548 eV                                      
   RCLOC  =    2.806    cutoff for local pot                                    
   LCOR   =        T    correct aug charges                                     
   LPAW   =        T    paw PP                                                  
   EAUG   =  291.424                                                            
   DEXC   =    0.000                                                            
   RMAX   =    3.171    core radius for proj-oper                               
   RAUG   =    1.300    factor for augmentation sphere                          
   RDEP   =    3.267    radius for radial grids                                 
   RDEPT  =    2.513    core radius for aug-charge                              
                                                                                
   Atomic configuration                                                         
    7 entries                                                                   
     n  l   j            E        occ.                                          
     1  0  0.50     -3522.0595   2.0000                                         
     2  0  0.50      -353.3851   2.0000                                         
     2  1  1.50      -280.0935   6.0000                                         
     3  0  0.50       -35.3419   2.0000                                         
     3  1  1.50       -18.8125   6.0000                                         
     4  0  0.50        -2.3190   1.0000                                         
     3  2  1.50        -1.3606   0.0000                                         
   Description                                                                  
     l       E           TYP  RCUT    TYP  RCUT                                 
     1    -18.8124623     23  3.000                                             
     1    -20.4087390     23  3.000                                             
     0     -2.3190215     23  3.100                                             
     0     20.4087390     23  3.100                                             
     2     -1.3605826     23  3.000                                             
  local pseudopotential read in
  partial core-charges read in
  partial kinetic energy density read in
  atomic valenz-charges read in
  non local Contribution for L=           1  read in
    real space projection operators read in
  non local Contribution for L=           1  read in
    real space projection operators read in
  non local Contribution for L=           0  read in
    real space projection operators read in
  non local Contribution for L=           0  read in
    real space projection operators read in
  non local Contribution for L=           2  read in
    real space projection operators read in
    PAW grid and wavefunctions read in

   number of l-projection  operators is LMAX  =           5
   number of lm-projection operators is LMMAX =          13

 POTCAR:    PAW_PBE Br 06Sep2000                  
   VRHFIN =Br: s2p5                                                             
   LEXCH  = PE                                                                  
   EATOM  =   368.4488 eV,   27.0802 Ry                                         
                                                                                
   TITEL  = PAW_PBE Br 06Sep2000                                                
   LULTRA =        F    use ultrasoft PP ?                                      
   IUNSCR =        1    unscreen: 0-lin 1-nonlin 2-no                           
   RPACOR =    1.900    partial core radius                                     
   POMASS =   79.904; ZVAL   =    7.000    mass and valenz                      
   RCORE  =    2.100    outmost cutoff radius                                   
   RWIGS  =    2.200; RWIGS  =    1.164    wigner-seitz radius (au A)           
   ENMAX  =  216.285; ENMIN  =  162.214 eV                                      
   ICORE  =        3    local potential                                         
   LCOR   =        T    correct aug charges                                     
   LPAW   =        T    paw PP                                                  
   EAUG   =  503.852                                                            
   DEXC   =    0.000                                                            
   RMAX   =    2.139    core radius for proj-oper                               
   RAUG   =    1.300    factor for augmentation sphere                          
   RDEP   =    2.186    radius for radial grids                                 
   RDEPT  =    1.890    core radius for aug-charge                              
                                                                                
   Atomic configuration                                                         
   10 entries                                                                   
     n  l   j            E        occ.                                          
     1  0  0.50    -13316.2796   2.0000                                         
     2  0  0.50     -1732.8239   2.0000                                         
     2  1  1.50     -1528.2193   6.0000                                         
     3  0  0.50      -238.0460   2.0000                                         
     3  1  1.50      -173.4609   6.0000                                         
     3  2  2.50       -66.7132  10.0000                                         
     4  0  0.50       -20.1334   2.0000                                         
     4  1  0.50        -7.8591   5.0000                                         
     4  2  2.50        -8.1635   0.0000                                         
     4  3  2.50        -8.1635   0.0000                                         
   Description                                                                  
     l       E           TYP  RCUT    TYP  RCUT                                 
     0    -20.1333652     23  2.100                                             
     0    -21.4939478     23  2.100                                             
     1     -7.8591052     23  2.100                                             
     1     -3.1608434     23  2.100                                             
     2     -8.1634956     23  2.100                                             
     3     -1.3605826      7  2.100                                             
  local pseudopotential read in
  partial core-charges read in
  partial kinetic energy density read in
  atomic valenz-charges read in
  non local Contribution for L=           0  read in
    real space projection operators read in
  non local Contribution for L=           0  read in
    real space projection operators read in
  non local Contribution for L=           1  read in
    real space projection operators read in
  non local Contribution for L=           1  read in
    real space projection operators read in
  non local Contribution for L=           2  read in
    real space projection operators read in
    PAW grid and wavefunctions read in

   number of l-projection  operators is LMAX  =           5
   number of lm-projection operators is LMMAX =          13

  PAW_PBE K_pv 17Jan2003                :
 energy of atom  1       EATOM= -450.4813
 kinetic energy error for atom=    0.0005 (will be added to EATOM!!)
  PAW_PBE Br 06Sep2000                  :
 energy of atom  2       EATOM= -368.4488
 kinetic energy error for atom=    0.0067 (will be added to EATOM!!)


 POSCAR: Generated by cif2cell 1.2.11.  :  Failed
  positions in direct lattice
  velocities in cartesian coordinates
 exchange correlation table for  LEXCH =        8
   RHO(1)=    0.500       N(1)  =     2000
   RHO(2)=  100.500       N(2)  =     4000



--------------------------------------------------------------------------------------------------------


 ion  position               nearest neighbor table
   1  0.000  0.000  0.000-   2 3.37   2 3.37   2 3.37   2 3.37   2 3.37   2 3.37
   2  0.500  0.500  0.500-   1 3.37   1 3.37   1 3.37   1 3.37   1 3.37   1 3.37

  LATTYP: Found a face centered cubic cell.
 ALAT       =     6.7338319192
  
  Lattice vectors:
  
 A1 = (  -0.0000000000,   3.3669159596,   3.3669159596)
 A2 = (   3.3669159596,  -0.0000000000,   3.3669159596)
 A3 = (   3.3669159596,   3.3669159596,   0.0000000000)


Analysis of symmetry for initial positions (statically):
=====================================================================
 Subroutine PRICEL returns:
 Original cell was already a primitive cell.
 

 Routine SETGRP: Setting up the symmetry group for a 
 face centered cubic supercell.


 Subroutine GETGRP returns: Found 48 space group operations
 (whereof 48 operations were pure point group operations)
 out of a pool of 48 trial point group operations.


The static configuration has the point symmetry O_h .


Analysis of symmetry for dynamics (positions and initial velocities):
=====================================================================
 Subroutine PRICEL returns:
 Original cell was already a primitive cell.
 

 Routine SETGRP: Setting up the symmetry group for a 
 face centered cubic supercell.


 Subroutine GETGRP returns: Found 48 space group operations
 (whereof 48 operations were pure point group operations)
 out of a pool of 48 trial point group operations.


The dynamic configuration has the point symmetry O_h .


 Subroutine INISYM returns: Found 48 space group operations
 (whereof 48 operations are pure point group operations),
 and found     1 'primitive' translations



 KPOINTS: Gamma-point only                        

Automatic generation of k-mesh.
Space group operators:
 irot       det(A)        alpha          n_x          n_y          n_z        tau_x        tau_y        tau_z
    1     1.000000     0.000000     1.000000     0.000000     0.000000     0.000000     0.000000     0.000000
    2    -1.000000     0.000000     1.000000     0.000000     0.000000     0.000000     0.000000     0.000000
    3     1.000000   120.000000    -0.577350    -0.577350    -0.577350     0.000000     0.000000     0.000000
    4    -1.000000   120.000000    -0.577350    -0.577350    -0.577350     0.000000     0.000000     0.000000
    5     1.000000   120.000000     0.577350     0.577350     0.577350     0.000000     0.000000     0.000000
    6    -1.000000   120.000000     0.577350     0.577350     0.577350     0.000000     0.000000     0.000000
    7     1.000000    90.000000     0.000000     0.000000    -1.000000     0.000000     0.000000     0.000000
    8    -1.000000    90.000000     0.000000     0.000000    -1.000000     0.000000     0.000000     0.000000
    9     1.000000   180.000000     0.000000     0.707107     0.707107     0.000000     0.000000     0.000000
   10    -1.000000   180.000000     0.000000     0.707107     0.707107     0.000000     0.000000     0.000000
   11     1.000000    90.000000     0.000000     1.000000     0.000000     0.000000     0.000000     0.000000
   12    -1.000000    90.000000     0.000000     1.000000     0.000000     0.000000     0.000000     0.000000
   13     1.000000   180.000000     0.000000     0.000000     1.000000     0.000000     0.000000     0.000000
   14    -1.000000   180.000000     0.000000     0.000000     1.000000     0.000000     0.000000     0.000000
   15     1.000000   120.000000    -0.577350     0.577350     0.577350     0.000000     0.000000     0.000000
   16    -1.000000   120.000000    -0.577350     0.577350     0.577350     0.000000     0.000000     0.000000
   17     1.000000   120.000000    -0.577350     0.577350    -0.577350     0.000000     0.000000     0.000000
   18    -1.000000   120.000000    -0.577350     0.577350    -0.577350     0.000000     0.000000     0.000000
   19     1.000000    90.000000     0.000000     0.000000     1.000000     0.000000     0.000000     0.000000
   20    -1.000000    90.000000     0.000000     0.000000     1.000000     0.000000     0.000000     0.000000
   21     1.000000    90.000000    -1.000000     0.000000     0.000000     0.000000     0.000000     0.000000
   22    -1.000000    90.000000    -1.000000     0.000000     0.000000     0.000000     0.000000     0.000000
   23     1.000000   180.000000     0.707107     0.000000     0.707107     0.000000     0.000000     0.000000
   24    -1.000000   180.000000     0.707107     0.000000     0.707107     0.000000     0.000000     0.000000
   25     1.000000   120.000000     0.577350    -0.577350     0.577350     0.000000     0.000000     0.000000
   26    -1.000000   120.000000     0.577350    -0.577350     0.577350     0.000000     0.000000     0.000000
   27     1.000000   120.000000    -0.577350    -0.577350     0.577350     0.000000     0.000000     0.000000
   28    -1.000000   120.000000    -0.577350    -0.577350     0.577350     0.000000     0.000000     0.000000
   29     1.000000   180.000000     1.000000     0.000000     0.000000     0.000000     0.000000     0.000000
   30    -1.000000   180.000000     1.000000     0.000000     0.000000     0.000000     0.000000     0.000000
   31     1.000000    90.000000     0.000000    -1.000000     0.000000     0.000000     0.000000     0.000000
   32    -1.000000    90.000000     0.000000    -1.000000     0.000000     0.000000     0.000000     0.000000
   33     1.000000   180.000000     0.707107     0.707107     0.000000     0.000000     0.000000     0.000000
   34    -1.000000   180.000000     0.707107     0.707107     0.000000     0.000000     0.000000     0.000000
   35     1.000000    90.000000     1.000000     0.000000     0.000000     0.000000     0.000000     0.000000
   36    -1.000000    90.000000     1.000000     0.000000     0.000000     0.000000     0.000000     0.000000
   37     1.000000   120.000000     0.577350    -0.577350    -0.577350     0.000000     0.000000     0.000000
   38    -1.000000   120.000000     0.577350    -0.577350    -0.577350     0.000000     0.000000     0.000000
   39     1.000000   180.000000     0.000000     1.000000     0.000000     0.000000     0.000000     0.000000
   40    -1.000000   180.000000     0.000000     1.000000     0.000000     0.000000     0.000000     0.000000
   41     1.000000   120.000000     0.577350     0.577350    -0.577350     0.000000     0.000000     0.000000
   42    -1.000000   120.000000     0.577350     0.577350    -0.577350     0.000000     0.000000     0.000000
   43     1.000000   180.000000     0.000000    -0.707107     0.707107     0.000000     0.000000     0.000000
   44    -1.000000   180.000000     0.000000    -0.707107     0.707107     0.000000     0.000000     0.000000
   45     1.000000   180.000000     0.707107    -0.707107     0.000000     0.000000     0.000000     0.000000
   46    -1.000000   180.000000     0.707107    -0.707107     0.000000     0.000000     0.000000     0.000000
   47     1.000000   180.000000     0.707107     0.000000    -0.707107     0.000000     0.000000     0.000000
   48    -1.000000   180.000000     0.707107     0.000000    -0.707107     0.000000     0.000000     0.000000
 
 Subroutine IBZKPT returns following result:
 ===========================================
 
 Found     35 irreducible k-points:
 
 Following reciprocal coordinates:
            Coordinates               Weight
  0.000000  0.000000  0.000000      1.000000
  0.111111  0.000000  0.000000      8.000000
  0.222222  0.000000  0.000000      8.000000
  0.333333  0.000000  0.000000      8.000000
  0.444444  0.000000  0.000000      8.000000
  0.111111  0.111111  0.000000      6.000000
  0.222222  0.111111  0.000000     24.000000
  0.333333  0.111111  0.000000     24.000000
  0.444444  0.111111  0.000000     24.000000
 -0.444444  0.111111  0.000000     24.000000
 -0.333333  0.111111  0.000000     24.000000
 -0.222222  0.111111  0.000000     24.000000
 -0.111111  0.111111  0.000000     12.000000
  0.222222  0.222222  0.000000      6.000000
  0.333333  0.222222  0.000000     24.000000
  0.444444  0.222222  0.000000     24.000000
 -0.444444  0.222222  0.000000     24.000000
 -0.333333  0.222222  0.000000     24.000000
 -0.222222  0.222222  0.000000     12.000000
  0.333333  0.333333  0.000000      6.000000
  0.444444  0.333333  0.000000     24.000000
 -0.444444  0.333333  0.000000     24.000000
 -0.333333  0.333333  0.000000     12.000000
  0.444444  0.444444  0.000000      6.000000
 -0.444444  0.444444  0.000000     12.000000
  0.333333  0.222222  0.111111     24.000000
  0.444444  0.222222  0.111111     48.000000
 -0.444444  0.222222  0.111111     48.000000
  0.444444  0.333333  0.111111     24.000000
 -0.444444  0.333333  0.111111     48.000000
 -0.333333  0.333333  0.111111     48.000000
 -0.222222  0.333333  0.111111     24.000000
 -0.444444  0.444444  0.111111     24.000000
 -0.333333  0.444444  0.111111     24.000000
 -0.333333  0.444444  0.222222     24.000000
 
 Following cartesian coordinates:
            Coordinates               Weight
  0.000000  0.000000  0.000000      1.000000
 -0.110604  0.110604  0.110604      8.000000
 -0.221207  0.221207  0.221207      8.000000
 -0.331811  0.331811  0.331811      8.000000
 -0.442415  0.442415  0.442415      8.000000
  0.000000  0.000000  0.221207      6.000000
 -0.110604  0.110604  0.331811     24.000000
 -0.221207  0.221207  0.442415     24.000000
 -0.331811  0.331811  0.553018     24.000000
  0.553018 -0.553018 -0.331811     24.000000
  0.442415 -0.442415 -0.221207     24.000000
  0.331811 -0.331811 -0.110604     24.000000
  0.221207 -0.221207  0.000000     12.000000
  0.000000  0.000000  0.442415      6.000000
 -0.110604  0.110604  0.553018     24.000000
 -0.221207  0.221207  0.663622     24.000000
  0.663622 -0.663622 -0.221207     24.000000
  0.553018 -0.553018 -0.110604     24.000000
  0.442415 -0.442415  0.000000     12.000000
  0.000000  0.000000  0.663622      6.000000
 -0.110604  0.110604  0.774225     24.000000
  0.774225 -0.774225 -0.110604     24.000000
  0.663622 -0.663622  0.000000     12.000000
  0.000000  0.000000  0.884829      6.000000
  0.884829 -0.884829  0.000000     12.000000
  0.000000  0.221207  0.442415     24.000000
 -0.110604  0.331811  0.553018     48.000000
  0.774225 -0.553018 -0.331811     48.000000
  0.000000  0.221207  0.663622     24.000000
  0.884829 -0.663622 -0.221207     48.000000
  0.774225 -0.553018 -0.110604     48.000000
  0.663622 -0.442415  0.000000     24.000000
  0.995433 -0.774225 -0.110604     24.000000
  0.884829 -0.663622  0.000000     24.000000
  0.995433 -0.553018 -0.110604     24.000000
 
 TETIRR: Found    115 inequivalent tetrahedra from     4374
 
 Subroutine IBZKPT_HF returns following result:
 ==============================================
 
 Found    729 k-points in 1st BZ
 the following    729 k-points will be used (e.g. in the exchange kernel)
 Following reciprocal coordinates:   # in IRBZ
  0.000000  0.000000  0.000000    0.00137174   1 t-inv F
  0.111111  0.000000  0.000000    0.00137174   2 t-inv F
  0.222222  0.000000  0.000000    0.00137174   3 t-inv F
  0.333333  0.000000  0.000000    0.00137174   4 t-inv F
  0.444444  0.000000  0.000000    0.00137174   5 t-inv F
  0.111111  0.111111  0.000000    0.00137174   6 t-inv F
  0.222222  0.111111  0.000000    0.00137174   7 t-inv F
  0.333333  0.111111  0.000000    0.00137174   8 t-inv F
  0.444444  0.111111  0.000000    0.00137174   9 t-inv F
 -0.444444  0.111111  0.000000    0.00137174  10 t-inv F
 -0.333333  0.111111  0.000000    0.00137174  11 t-inv F
 -0.222222  0.111111  0.000000    0.00137174  12 t-inv F
 -0.111111  0.111111  0.000000    0.00137174  13 t-inv F
  0.222222  0.222222  0.000000    0.00137174  14 t-inv F
  0.333333  0.222222  0.000000    0.00137174  15 t-inv F
  0.444444  0.222222  0.000000    0.00137174  16 t-inv F
 -0.444444  0.222222  0.000000    0.00137174  17 t-inv F
 -0.333333  0.222222  0.000000    0.00137174  18 t-inv F
 -0.222222  0.222222  0.000000    0.00137174  19 t-inv F
  0.333333  0.333333  0.000000    0.00137174  20 t-inv F
  0.444444  0.333333  0.000000    0.00137174  21 t-inv F
 -0.444444  0.333333  0.000000    0.00137174  22 t-inv F
 -0.333333  0.333333  0.000000    0.00137174  23 t-inv F
  0.444444  0.444444  0.000000    0.00137174  24 t-inv F
 -0.444444  0.444444  0.000000    0.00137174  25 t-inv F
  0.333333  0.222222  0.111111    0.00137174  26 t-inv F
  0.444444  0.222222  0.111111    0.00137174  27 t-inv F
 -0.444444  0.222222  0.111111    0.00137174  28 t-inv F
  0.444444  0.333333  0.111111    0.00137174  29 t-inv F
 -0.444444  0.333333  0.111111    0.00137174  30 t-inv F
 -0.333333  0.333333  0.111111    0.00137174  31 t-inv F
 -0.222222  0.333333  0.111111    0.00137174  32 t-inv F
 -0.444444  0.444444  0.111111    0.00137174  33 t-inv F
 -0.333333  0.444444  0.111111    0.00137174  34 t-inv F
 -0.333333  0.444444  0.222222    0.00137174  35 t-inv F
 -0.111111 -0.000000 -0.000000    0.00137174   2 t-inv F
  0.000000  0.111111  0.000000    0.00137174   2 t-inv F
 -0.000000 -0.111111 -0.000000    0.00137174   2 t-inv F
  0.000000  0.000000  0.111111    0.00137174   2 t-inv F
 -0.000000 -0.000000 -0.111111    0.00137174   2 t-inv F
  0.111111  0.111111  0.111111    0.00137174   2 t-inv F
 -0.111111 -0.111111 -0.111111    0.00137174   2 t-inv F
 -0.222222 -0.000000 -0.000000    0.00137174   3 t-inv F
  0.000000  0.222222  0.000000    0.00137174   3 t-inv F
 -0.000000 -0.222222 -0.000000    0.00137174   3 t-inv F
  0.000000  0.000000  0.222222    0.00137174   3 t-inv F
 -0.000000 -0.000000 -0.222222    0.00137174   3 t-inv F
  0.222222  0.222222  0.222222    0.00137174   3 t-inv F
 -0.222222 -0.222222 -0.222222    0.00137174   3 t-inv F
 -0.333333 -0.000000 -0.000000    0.00137174   4 t-inv F
  0.000000  0.333333  0.000000    0.00137174   4 t-inv F
 -0.000000 -0.333333 -0.000000    0.00137174   4 t-inv F
  0.000000  0.000000  0.333333    0.00137174   4 t-inv F
 -0.000000 -0.000000 -0.333333    0.00137174   4 t-inv F
  0.333333  0.333333  0.333333    0.00137174   4 t-inv F
 -0.333333 -0.333333 -0.333333    0.00137174   4 t-inv F
 -0.444444 -0.000000 -0.000000    0.00137174   5 t-inv F
  0.000000  0.444444  0.000000    0.00137174   5 t-inv F
 -0.000000 -0.444444 -0.000000    0.00137174   5 t-inv F
  0.000000  0.000000  0.444444    0.00137174   5 t-inv F
 -0.000000 -0.000000 -0.444444    0.00137174   5 t-inv F
  0.444444  0.444444  0.444444    0.00137174   5 t-inv F
 -0.444444 -0.444444 -0.444444    0.00137174   5 t-inv F
 -0.111111 -0.111111 -0.000000    0.00137174   6 t-inv F
  0.000000  0.111111  0.111111    0.00137174   6 t-inv F
 -0.000000 -0.111111 -0.111111    0.00137174   6 t-inv F
  0.111111  0.000000  0.111111    0.00137174   6 t-inv F
 -0.111111 -0.000000 -0.111111    0.00137174   6 t-inv F
 -0.222222 -0.111111 -0.000000    0.00137174   7 t-inv F
  0.000000  0.222222  0.111111    0.00137174   7 t-inv F
 -0.000000 -0.222222 -0.111111    0.00137174   7 t-inv F
  0.111111  0.000000  0.222222    0.00137174   7 t-inv F
 -0.111111 -0.000000 -0.222222    0.00137174   7 t-inv F
  0.111111  0.111111 -0.111111    0.00137174   7 t-inv F
 -0.111111 -0.111111  0.111111    0.00137174   7 t-inv F
  0.222222  0.111111  0.222222    0.00137174   7 t-inv F
 -0.222222 -0.111111 -0.222222    0.00137174   7 t-inv F
  0.111111  0.222222 -0.000000    0.00137174   7 t-inv F
 -0.111111 -0.222222  0.000000    0.00137174   7 t-inv F
  0.111111 -0.111111 -0.111111    0.00137174   7 t-inv F
 -0.111111  0.111111  0.111111    0.00137174   7 t-inv F
  0.222222  0.222222  0.111111    0.00137174   7 t-inv F
 -0.222222 -0.222222 -0.111111    0.00137174   7 t-inv F
 -0.000000  0.111111  0.222222    0.00137174   7 t-inv F
  0.000000 -0.111111 -0.222222    0.00137174   7 t-inv F
 -0.111111  0.111111 -0.111111    0.00137174   7 t-inv F
  0.111111 -0.111111  0.111111    0.00137174   7 t-inv F
  0.111111  0.222222  0.222222    0.00137174   7 t-inv F
 -0.111111 -0.222222 -0.222222    0.00137174   7 t-inv F
  0.222222 -0.000000  0.111111    0.00137174   7 t-inv F
 -0.222222  0.000000 -0.111111    0.00137174   7 t-inv F
 -0.333333 -0.111111 -0.000000    0.00137174   8 t-inv F
  0.000000  0.333333  0.111111    0.00137174   8 t-inv F
 -0.000000 -0.333333 -0.111111    0.00137174   8 t-inv F
  0.111111  0.000000  0.333333    0.00137174   8 t-inv F
 -0.111111 -0.000000 -0.333333    0.00137174   8 t-inv F
  0.111111  0.111111 -0.222222    0.00137174   8 t-inv F
 -0.111111 -0.111111  0.222222    0.00137174   8 t-inv F
  0.333333  0.222222  0.333333    0.00137174   8 t-inv F
 -0.333333 -0.222222 -0.333333    0.00137174   8 t-inv F
  0.111111  0.333333 -0.000000    0.00137174   8 t-inv F
 -0.111111 -0.333333  0.000000    0.00137174   8 t-inv F
  0.222222 -0.111111 -0.111111    0.00137174   8 t-inv F
 -0.222222  0.111111  0.111111    0.00137174   8 t-inv F
  0.333333  0.333333  0.222222    0.00137174   8 t-inv F
 -0.333333 -0.333333 -0.222222    0.00137174   8 t-inv F
 -0.000000  0.111111  0.333333    0.00137174   8 t-inv F
  0.000000 -0.111111 -0.333333    0.00137174   8 t-inv F
 -0.111111  0.222222 -0.111111    0.00137174   8 t-inv F
  0.111111 -0.222222  0.111111    0.00137174   8 t-inv F
  0.222222  0.333333  0.333333    0.00137174   8 t-inv F
 -0.222222 -0.333333 -0.333333    0.00137174   8 t-inv F
  0.333333 -0.000000  0.111111    0.00137174   8 t-inv F
 -0.333333  0.000000 -0.111111    0.00137174   8 t-inv F
 -0.444444 -0.111111 -0.000000    0.00137174   9 t-inv F
  0.000000  0.444444  0.111111    0.00137174   9 t-inv F
 -0.000000 -0.444444 -0.111111    0.00137174   9 t-inv F
  0.111111  0.000000  0.444444    0.00137174   9 t-inv F
 -0.111111 -0.000000 -0.444444    0.00137174   9 t-inv F
  0.111111  0.111111 -0.333333    0.00137174   9 t-inv F
 -0.111111 -0.111111  0.333333    0.00137174   9 t-inv F
  0.444444  0.333333  0.444444    0.00137174   9 t-inv F
 -0.444444 -0.333333 -0.444444    0.00137174   9 t-inv F
  0.111111  0.444444 -0.000000    0.00137174   9 t-inv F
 -0.111111 -0.444444  0.000000    0.00137174   9 t-inv F
  0.333333 -0.111111 -0.111111    0.00137174   9 t-inv F
 -0.333333  0.111111  0.111111    0.00137174   9 t-inv F
  0.444444  0.444444  0.333333    0.00137174   9 t-inv F
 -0.444444 -0.444444 -0.333333    0.00137174   9 t-inv F
 -0.000000  0.111111  0.444444    0.00137174   9 t-inv F
  0.000000 -0.111111 -0.444444    0.00137174   9 t-inv F
 -0.111111  0.333333 -0.111111    0.00137174   9 t-inv F
  0.111111 -0.333333  0.111111    0.00137174   9 t-inv F
  0.333333  0.444444  0.444444    0.00137174   9 t-inv F
 -0.333333 -0.444444 -0.444444    0.00137174   9 t-inv F
  0.444444 -0.000000  0.111111    0.00137174   9 t-inv F
 -0.444444  0.000000 -0.111111    0.00137174   9 t-inv F
  0.444444 -0.111111 -0.000000    0.00137174  10 t-inv F
  0.000000 -0.444444  0.111111    0.00137174  10 t-inv F
 -0.000000  0.444444 -0.111111    0.00137174  10 t-inv F
  0.111111  0.000000 -0.444444    0.00137174  10 t-inv F
 -0.111111 -0.000000  0.444444    0.00137174  10 t-inv F
  0.111111  0.111111  0.555556    0.00137174  10 t-inv F
 -0.111111 -0.111111 -0.555556    0.00137174  10 t-inv F
 -0.444444 -0.555556 -0.444444    0.00137174  10 t-inv F
  0.444444  0.555556  0.444444    0.00137174  10 t-inv F
  0.111111 -0.444444 -0.000000    0.00137174  10 t-inv F
 -0.111111  0.444444  0.000000    0.00137174  10 t-inv F
 -0.555556 -0.111111 -0.111111    0.00137174  10 t-inv F
  0.555556  0.111111  0.111111    0.00137174  10 t-inv F
 -0.444444 -0.444444 -0.555556    0.00137174  10 t-inv F
  0.444444  0.444444  0.555556    0.00137174  10 t-inv F
 -0.000000  0.111111 -0.444444    0.00137174  10 t-inv F
  0.000000 -0.111111  0.444444    0.00137174  10 t-inv F
 -0.111111 -0.555556 -0.111111    0.00137174  10 t-inv F
  0.111111  0.555556  0.111111    0.00137174  10 t-inv F
 -0.555556 -0.444444 -0.444444    0.00137174  10 t-inv F
  0.555556  0.444444  0.444444    0.00137174  10 t-inv F
 -0.444444 -0.000000  0.111111    0.00137174  10 t-inv F
  0.444444  0.000000 -0.111111    0.00137174  10 t-inv F
  0.333333 -0.111111 -0.000000    0.00137174  11 t-inv F
  0.000000 -0.333333  0.111111    0.00137174  11 t-inv F
 -0.000000  0.333333 -0.111111    0.00137174  11 t-inv F
  0.111111  0.000000 -0.333333    0.00137174  11 t-inv F
 -0.111111 -0.000000  0.333333    0.00137174  11 t-inv F
  0.111111  0.111111  0.444444    0.00137174  11 t-inv F
 -0.111111 -0.111111 -0.444444    0.00137174  11 t-inv F
 -0.333333 -0.444444 -0.333333    0.00137174  11 t-inv F
  0.333333  0.444444  0.333333    0.00137174  11 t-inv F
  0.111111 -0.333333 -0.000000    0.00137174  11 t-inv F
 -0.111111  0.333333  0.000000    0.00137174  11 t-inv F
 -0.444444 -0.111111 -0.111111    0.00137174  11 t-inv F
  0.444444  0.111111  0.111111    0.00137174  11 t-inv F
 -0.333333 -0.333333 -0.444444    0.00137174  11 t-inv F
  0.333333  0.333333  0.444444    0.00137174  11 t-inv F
 -0.000000  0.111111 -0.333333    0.00137174  11 t-inv F
  0.000000 -0.111111  0.333333    0.00137174  11 t-inv F
 -0.111111 -0.444444 -0.111111    0.00137174  11 t-inv F
  0.111111  0.444444  0.111111    0.00137174  11 t-inv F
 -0.444444 -0.333333 -0.333333    0.00137174  11 t-inv F
  0.444444  0.333333  0.333333    0.00137174  11 t-inv F
 -0.333333 -0.000000  0.111111    0.00137174  11 t-inv F
  0.333333  0.000000 -0.111111    0.00137174  11 t-inv F
  0.222222 -0.111111 -0.000000    0.00137174  12 t-inv F
  0.000000 -0.222222  0.111111    0.00137174  12 t-inv F
 -0.000000  0.222222 -0.111111    0.00137174  12 t-inv F
  0.111111  0.000000 -0.222222    0.00137174  12 t-inv F
 -0.111111 -0.000000  0.222222    0.00137174  12 t-inv F
  0.111111  0.111111  0.333333    0.00137174  12 t-inv F
 -0.111111 -0.111111 -0.333333    0.00137174  12 t-inv F
 -0.222222 -0.333333 -0.222222    0.00137174  12 t-inv F
  0.222222  0.333333  0.222222    0.00137174  12 t-inv F
  0.111111 -0.222222 -0.000000    0.00137174  12 t-inv F
 -0.111111  0.222222  0.000000    0.00137174  12 t-inv F
 -0.333333 -0.111111 -0.111111    0.00137174  12 t-inv F
  0.333333  0.111111  0.111111    0.00137174  12 t-inv F
 -0.222222 -0.222222 -0.333333    0.00137174  12 t-inv F
  0.222222  0.222222  0.333333    0.00137174  12 t-inv F
 -0.000000  0.111111 -0.222222    0.00137174  12 t-inv F
  0.000000 -0.111111  0.222222    0.00137174  12 t-inv F
 -0.111111 -0.333333 -0.111111    0.00137174  12 t-inv F
  0.111111  0.333333  0.111111    0.00137174  12 t-inv F
 -0.333333 -0.222222 -0.222222    0.00137174  12 t-inv F
  0.333333  0.222222  0.222222    0.00137174  12 t-inv F
 -0.222222 -0.000000  0.111111    0.00137174  12 t-inv F
  0.222222  0.000000 -0.111111    0.00137174  12 t-inv F
  0.111111 -0.111111 -0.000000    0.00137174  13 t-inv F
  0.000000 -0.111111  0.111111    0.00137174  13 t-inv F
 -0.000000  0.111111 -0.111111    0.00137174  13 t-inv F
  0.111111  0.000000 -0.111111    0.00137174  13 t-inv F
 -0.111111 -0.000000  0.111111    0.00137174  13 t-inv F
  0.111111  0.111111  0.222222    0.00137174  13 t-inv F
 -0.111111 -0.111111 -0.222222    0.00137174  13 t-inv F
 -0.111111 -0.222222 -0.111111    0.00137174  13 t-inv F
  0.111111  0.222222  0.111111    0.00137174  13 t-inv F
 -0.222222 -0.111111 -0.111111    0.00137174  13 t-inv F
  0.222222  0.111111  0.111111    0.00137174  13 t-inv F
 -0.222222 -0.222222 -0.000000    0.00137174  14 t-inv F
  0.000000  0.222222  0.222222    0.00137174  14 t-inv F
 -0.000000 -0.222222 -0.222222    0.00137174  14 t-inv F
  0.222222  0.000000  0.222222    0.00137174  14 t-inv F
 -0.222222 -0.000000 -0.222222    0.00137174  14 t-inv F
 -0.333333 -0.222222 -0.000000    0.00137174  15 t-inv F
  0.000000  0.333333  0.222222    0.00137174  15 t-inv F
 -0.000000 -0.333333 -0.222222    0.00137174  15 t-inv F
  0.222222  0.000000  0.333333    0.00137174  15 t-inv F
 -0.222222 -0.000000 -0.333333    0.00137174  15 t-inv F
  0.222222  0.222222 -0.111111    0.00137174  15 t-inv F
 -0.222222 -0.222222  0.111111    0.00137174  15 t-inv F
  0.333333  0.111111  0.333333    0.00137174  15 t-inv F
 -0.333333 -0.111111 -0.333333    0.00137174  15 t-inv F
  0.222222  0.333333 -0.000000    0.00137174  15 t-inv F
 -0.222222 -0.333333  0.000000    0.00137174  15 t-inv F
  0.111111 -0.222222 -0.222222    0.00137174  15 t-inv F
 -0.111111  0.222222  0.222222    0.00137174  15 t-inv F
  0.333333  0.333333  0.111111    0.00137174  15 t-inv F
 -0.333333 -0.333333 -0.111111    0.00137174  15 t-inv F
 -0.000000  0.222222  0.333333    0.00137174  15 t-inv F
  0.000000 -0.222222 -0.333333    0.00137174  15 t-inv F
 -0.222222  0.111111 -0.222222    0.00137174  15 t-inv F
  0.222222 -0.111111  0.222222    0.00137174  15 t-inv F
  0.111111  0.333333  0.333333    0.00137174  15 t-inv F
 -0.111111 -0.333333 -0.333333    0.00137174  15 t-inv F
  0.333333 -0.000000  0.222222    0.00137174  15 t-inv F
 -0.333333  0.000000 -0.222222    0.00137174  15 t-inv F
 -0.444444 -0.222222 -0.000000    0.00137174  16 t-inv F
  0.000000  0.444444  0.222222    0.00137174  16 t-inv F
 -0.000000 -0.444444 -0.222222    0.00137174  16 t-inv F
  0.222222  0.000000  0.444444    0.00137174  16 t-inv F
 -0.222222 -0.000000 -0.444444    0.00137174  16 t-inv F
  0.222222  0.222222 -0.222222    0.00137174  16 t-inv F
 -0.222222 -0.222222  0.222222    0.00137174  16 t-inv F
  0.444444  0.222222  0.444444    0.00137174  16 t-inv F
 -0.444444 -0.222222 -0.444444    0.00137174  16 t-inv F
  0.222222  0.444444 -0.000000    0.00137174  16 t-inv F
 -0.222222 -0.444444  0.000000    0.00137174  16 t-inv F
  0.222222 -0.222222 -0.222222    0.00137174  16 t-inv F
 -0.222222  0.222222  0.222222    0.00137174  16 t-inv F
  0.444444  0.444444  0.222222    0.00137174  16 t-inv F
 -0.444444 -0.444444 -0.222222    0.00137174  16 t-inv F
 -0.000000  0.222222  0.444444    0.00137174  16 t-inv F
  0.000000 -0.222222 -0.444444    0.00137174  16 t-inv F
 -0.222222  0.222222 -0.222222    0.00137174  16 t-inv F
  0.222222 -0.222222  0.222222    0.00137174  16 t-inv F
  0.222222  0.444444  0.444444    0.00137174  16 t-inv F
 -0.222222 -0.444444 -0.444444    0.00137174  16 t-inv F
  0.444444 -0.000000  0.222222    0.00137174  16 t-inv F
 -0.444444  0.000000 -0.222222    0.00137174  16 t-inv F
  0.444444 -0.222222 -0.000000    0.00137174  17 t-inv F
  0.000000 -0.444444  0.222222    0.00137174  17 t-inv F
 -0.000000  0.444444 -0.222222    0.00137174  17 t-inv F
  0.222222  0.000000 -0.444444    0.00137174  17 t-inv F
 -0.222222 -0.000000  0.444444    0.00137174  17 t-inv F
  0.222222  0.222222  0.666667    0.00137174  17 t-inv F
 -0.222222 -0.222222 -0.666667    0.00137174  17 t-inv F
 -0.444444 -0.666667 -0.444444    0.00137174  17 t-inv F
  0.444444  0.666667  0.444444    0.00137174  17 t-inv F
  0.222222 -0.444444 -0.000000    0.00137174  17 t-inv F
 -0.222222  0.444444  0.000000    0.00137174  17 t-inv F
 -0.666667 -0.222222 -0.222222    0.00137174  17 t-inv F
  0.666667  0.222222  0.222222    0.00137174  17 t-inv F
 -0.444444 -0.444444 -0.666667    0.00137174  17 t-inv F
  0.444444  0.444444  0.666667    0.00137174  17 t-inv F
 -0.000000  0.222222 -0.444444    0.00137174  17 t-inv F
  0.000000 -0.222222  0.444444    0.00137174  17 t-inv F
 -0.222222 -0.666667 -0.222222    0.00137174  17 t-inv F
  0.222222  0.666667  0.222222    0.00137174  17 t-inv F
 -0.666667 -0.444444 -0.444444    0.00137174  17 t-inv F
  0.666667  0.444444  0.444444    0.00137174  17 t-inv F
 -0.444444 -0.000000  0.222222    0.00137174  17 t-inv F
  0.444444  0.000000 -0.222222    0.00137174  17 t-inv F
  0.333333 -0.222222 -0.000000    0.00137174  18 t-inv F
  0.000000 -0.333333  0.222222    0.00137174  18 t-inv F
 -0.000000  0.333333 -0.222222    0.00137174  18 t-inv F
  0.222222  0.000000 -0.333333    0.00137174  18 t-inv F
 -0.222222 -0.000000  0.333333    0.00137174  18 t-inv F
  0.222222  0.222222  0.555556    0.00137174  18 t-inv F
 -0.222222 -0.222222 -0.555556    0.00137174  18 t-inv F
 -0.333333 -0.555556 -0.333333    0.00137174  18 t-inv F
  0.333333  0.555556  0.333333    0.00137174  18 t-inv F
  0.222222 -0.333333 -0.000000    0.00137174  18 t-inv F
 -0.222222  0.333333  0.000000    0.00137174  18 t-inv F
 -0.555556 -0.222222 -0.222222    0.00137174  18 t-inv F
  0.555556  0.222222  0.222222    0.00137174  18 t-inv F
 -0.333333 -0.333333 -0.555556    0.00137174  18 t-inv F
  0.333333  0.333333  0.555556    0.00137174  18 t-inv F
 -0.000000  0.222222 -0.333333    0.00137174  18 t-inv F
  0.000000 -0.222222  0.333333    0.00137174  18 t-inv F
 -0.222222 -0.555556 -0.222222    0.00137174  18 t-inv F
  0.222222  0.555556  0.222222    0.00137174  18 t-inv F
 -0.555556 -0.333333 -0.333333    0.00137174  18 t-inv F
  0.555556  0.333333  0.333333    0.00137174  18 t-inv F
 -0.333333 -0.000000  0.222222    0.00137174  18 t-inv F
  0.333333  0.000000 -0.222222    0.00137174  18 t-inv F
  0.222222 -0.222222 -0.000000    0.00137174  19 t-inv F
  0.000000 -0.222222  0.222222    0.00137174  19 t-inv F
 -0.000000  0.222222 -0.222222    0.00137174  19 t-inv F
  0.222222  0.000000 -0.222222    0.00137174  19 t-inv F
 -0.222222 -0.000000  0.222222    0.00137174  19 t-inv F
  0.222222  0.222222  0.444444    0.00137174  19 t-inv F
 -0.222222 -0.222222 -0.444444    0.00137174  19 t-inv F
 -0.222222 -0.444444 -0.222222    0.00137174  19 t-inv F
  0.222222  0.444444  0.222222    0.00137174  19 t-inv F
 -0.444444 -0.222222 -0.222222    0.00137174  19 t-inv F
  0.444444  0.222222  0.222222    0.00137174  19 t-inv F
 -0.333333 -0.333333 -0.000000    0.00137174  20 t-inv F
  0.000000  0.333333  0.333333    0.00137174  20 t-inv F
 -0.000000 -0.333333 -0.333333    0.00137174  20 t-inv F
  0.333333  0.000000  0.333333    0.00137174  20 t-inv F
 -0.333333 -0.000000 -0.333333    0.00137174  20 t-inv F
 -0.444444 -0.333333 -0.000000    0.00137174  21 t-inv F
  0.000000  0.444444  0.333333    0.00137174  21 t-inv F
 -0.000000 -0.444444 -0.333333    0.00137174  21 t-inv F
  0.333333  0.000000  0.444444    0.00137174  21 t-inv F
 -0.333333 -0.000000 -0.444444    0.00137174  21 t-inv F
  0.333333  0.333333 -0.111111    0.00137174  21 t-inv F
 -0.333333 -0.333333  0.111111    0.00137174  21 t-inv F
  0.444444  0.111111  0.444444    0.00137174  21 t-inv F
 -0.444444 -0.111111 -0.444444    0.00137174  21 t-inv F
  0.333333  0.444444 -0.000000    0.00137174  21 t-inv F
 -0.333333 -0.444444  0.000000    0.00137174  21 t-inv F
  0.111111 -0.333333 -0.333333    0.00137174  21 t-inv F
 -0.111111  0.333333  0.333333    0.00137174  21 t-inv F
  0.444444  0.444444  0.111111    0.00137174  21 t-inv F
 -0.444444 -0.444444 -0.111111    0.00137174  21 t-inv F
 -0.000000  0.333333  0.444444    0.00137174  21 t-inv F
  0.000000 -0.333333 -0.444444    0.00137174  21 t-inv F
 -0.333333  0.111111 -0.333333    0.00137174  21 t-inv F
  0.333333 -0.111111  0.333333    0.00137174  21 t-inv F
  0.111111  0.444444  0.444444    0.00137174  21 t-inv F
 -0.111111 -0.444444 -0.444444    0.00137174  21 t-inv F
  0.444444 -0.000000  0.333333    0.00137174  21 t-inv F
 -0.444444  0.000000 -0.333333    0.00137174  21 t-inv F
  0.444444 -0.333333 -0.000000    0.00137174  22 t-inv F
  0.000000 -0.444444  0.333333    0.00137174  22 t-inv F
 -0.000000  0.444444 -0.333333    0.00137174  22 t-inv F
  0.333333  0.000000 -0.444444    0.00137174  22 t-inv F
 -0.333333 -0.000000  0.444444    0.00137174  22 t-inv F
  0.333333  0.333333  0.777778    0.00137174  22 t-inv F
 -0.333333 -0.333333 -0.777778    0.00137174  22 t-inv F
 -0.444444 -0.777778 -0.444444    0.00137174  22 t-inv F
  0.444444  0.777778  0.444444    0.00137174  22 t-inv F
  0.333333 -0.444444 -0.000000    0.00137174  22 t-inv F
 -0.333333  0.444444  0.000000    0.00137174  22 t-inv F
 -0.777778 -0.333333 -0.333333    0.00137174  22 t-inv F
  0.777778  0.333333  0.333333    0.00137174  22 t-inv F
 -0.444444 -0.444444 -0.777778    0.00137174  22 t-inv F
  0.444444  0.444444  0.777778    0.00137174  22 t-inv F
 -0.000000  0.333333 -0.444444    0.00137174  22 t-inv F
  0.000000 -0.333333  0.444444    0.00137174  22 t-inv F
 -0.333333 -0.777778 -0.333333    0.00137174  22 t-inv F
  0.333333  0.777778  0.333333    0.00137174  22 t-inv F
 -0.777778 -0.444444 -0.444444    0.00137174  22 t-inv F
  0.777778  0.444444  0.444444    0.00137174  22 t-inv F
 -0.444444 -0.000000  0.333333    0.00137174  22 t-inv F
  0.444444  0.000000 -0.333333    0.00137174  22 t-inv F
  0.333333 -0.333333 -0.000000    0.00137174  23 t-inv F
  0.000000 -0.333333  0.333333    0.00137174  23 t-inv F
 -0.000000  0.333333 -0.333333    0.00137174  23 t-inv F
  0.333333  0.000000 -0.333333    0.00137174  23 t-inv F
 -0.333333 -0.000000  0.333333    0.00137174  23 t-inv F
  0.333333  0.333333  0.666667    0.00137174  23 t-inv F
 -0.333333 -0.333333 -0.666667    0.00137174  23 t-inv F
 -0.333333 -0.666667 -0.333333    0.00137174  23 t-inv F
  0.333333  0.666667  0.333333    0.00137174  23 t-inv F
 -0.666667 -0.333333 -0.333333    0.00137174  23 t-inv F
  0.666667  0.333333  0.333333    0.00137174  23 t-inv F
 -0.444444 -0.444444 -0.000000    0.00137174  24 t-inv F
  0.000000  0.444444  0.444444    0.00137174  24 t-inv F
 -0.000000 -0.444444 -0.444444    0.00137174  24 t-inv F
  0.444444  0.000000  0.444444    0.00137174  24 t-inv F
 -0.444444 -0.000000 -0.444444    0.00137174  24 t-inv F
  0.444444 -0.444444 -0.000000    0.00137174  25 t-inv F
  0.000000 -0.444444  0.444444    0.00137174  25 t-inv F
 -0.000000  0.444444 -0.444444    0.00137174  25 t-inv F
  0.444444  0.000000 -0.444444    0.00137174  25 t-inv F
 -0.444444 -0.000000  0.444444    0.00137174  25 t-inv F
  0.444444  0.444444  0.888889    0.00137174  25 t-inv F
 -0.444444 -0.444444 -0.888889    0.00137174  25 t-inv F
 -0.444444 -0.888889 -0.444444    0.00137174  25 t-inv F
  0.444444  0.888889  0.444444    0.00137174  25 t-inv F
 -0.888889 -0.444444 -0.444444    0.00137174  25 t-inv F
  0.888889  0.444444  0.444444    0.00137174  25 t-inv F
 -0.333333 -0.222222 -0.111111    0.00137174  26 t-inv F
  0.111111  0.333333  0.222222    0.00137174  26 t-inv F
 -0.111111 -0.333333 -0.222222    0.00137174  26 t-inv F
  0.222222  0.111111  0.333333    0.00137174  26 t-inv F
 -0.222222 -0.111111 -0.333333    0.00137174  26 t-inv F
  0.222222  0.111111 -0.111111    0.00137174  26 t-inv F
 -0.222222 -0.111111  0.111111    0.00137174  26 t-inv F
  0.333333  0.111111  0.222222    0.00137174  26 t-inv F
 -0.333333 -0.111111 -0.222222    0.00137174  26 t-inv F
  0.111111 -0.222222 -0.111111    0.00137174  26 t-inv F
 -0.111111  0.222222  0.111111    0.00137174  26 t-inv F
  0.111111  0.222222 -0.111111    0.00137174  26 t-inv F
 -0.111111 -0.222222  0.111111    0.00137174  26 t-inv F
  0.111111 -0.111111 -0.222222    0.00137174  26 t-inv F
 -0.111111  0.111111  0.222222    0.00137174  26 t-inv F
  0.222222  0.333333  0.111111    0.00137174  26 t-inv F
 -0.222222 -0.333333 -0.111111    0.00137174  26 t-inv F
 -0.111111  0.111111 -0.222222    0.00137174  26 t-inv F
  0.111111 -0.111111  0.222222    0.00137174  26 t-inv F
 -0.222222  0.111111 -0.111111    0.00137174  26 t-inv F
  0.222222 -0.111111  0.111111    0.00137174  26 t-inv F
  0.111111  0.222222  0.333333    0.00137174  26 t-inv F
 -0.111111 -0.222222 -0.333333    0.00137174  26 t-inv F
 -0.444444 -0.222222 -0.111111    0.00137174  27 t-inv F
  0.111111  0.444444  0.222222    0.00137174  27 t-inv F
 -0.111111 -0.444444 -0.222222    0.00137174  27 t-inv F
  0.222222  0.111111  0.444444    0.00137174  27 t-inv F
 -0.222222 -0.111111 -0.444444    0.00137174  27 t-inv F
  0.222222  0.111111 -0.222222    0.00137174  27 t-inv F
 -0.222222 -0.111111  0.222222    0.00137174  27 t-inv F
  0.444444  0.222222  0.333333    0.00137174  27 t-inv F
 -0.444444 -0.222222 -0.333333    0.00137174  27 t-inv F
  0.111111 -0.333333 -0.111111    0.00137174  27 t-inv F
 -0.111111  0.333333  0.111111    0.00137174  27 t-inv F
  0.111111  0.333333 -0.111111    0.00137174  27 t-inv F
 -0.111111 -0.333333  0.111111    0.00137174  27 t-inv F
  0.222222 -0.111111 -0.222222    0.00137174  27 t-inv F
 -0.222222  0.111111  0.222222    0.00137174  27 t-inv F
 -0.333333 -0.222222 -0.444444    0.00137174  27 t-inv F
  0.333333  0.222222  0.444444    0.00137174  27 t-inv F
  0.333333  0.444444  0.222222    0.00137174  27 t-inv F
 -0.333333 -0.444444 -0.222222    0.00137174  27 t-inv F
 -0.111111  0.111111 -0.333333    0.00137174  27 t-inv F
  0.111111 -0.111111  0.333333    0.00137174  27 t-inv F
 -0.222222  0.222222  0.111111    0.00137174  27 t-inv F
  0.222222 -0.222222 -0.111111    0.00137174  27 t-inv F
 -0.111111  0.111111  0.333333    0.00137174  27 t-inv F
  0.111111 -0.111111 -0.333333    0.00137174  27 t-inv F
 -0.222222  0.222222 -0.111111    0.00137174  27 t-inv F
  0.222222 -0.222222  0.111111    0.00137174  27 t-inv F
 -0.444444 -0.333333 -0.222222    0.00137174  27 t-inv F
  0.444444  0.333333  0.222222    0.00137174  27 t-inv F
  0.222222  0.333333  0.444444    0.00137174  27 t-inv F
 -0.222222 -0.333333 -0.444444    0.00137174  27 t-inv F
 -0.333333 -0.111111  0.111111    0.00137174  27 t-inv F
  0.333333  0.111111 -0.111111    0.00137174  27 t-inv F
  0.111111 -0.222222  0.222222    0.00137174  27 t-inv F
 -0.111111  0.222222 -0.222222    0.00137174  27 t-inv F
  0.333333 -0.111111  0.111111    0.00137174  27 t-inv F
 -0.333333  0.111111 -0.111111    0.00137174  27 t-inv F
 -0.111111 -0.222222  0.222222    0.00137174  27 t-inv F
  0.111111  0.222222 -0.222222    0.00137174  27 t-inv F
 -0.222222 -0.444444 -0.333333    0.00137174  27 t-inv F
  0.222222  0.444444  0.333333    0.00137174  27 t-inv F
 -0.444444 -0.111111 -0.222222    0.00137174  27 t-inv F
  0.444444  0.111111  0.222222    0.00137174  27 t-inv F
 -0.222222 -0.444444 -0.111111    0.00137174  27 t-inv F
  0.222222  0.444444  0.111111    0.00137174  27 t-inv F
 -0.111111 -0.222222 -0.444444    0.00137174  27 t-inv F
  0.111111  0.222222  0.444444    0.00137174  27 t-inv F
  0.444444 -0.222222 -0.111111    0.00137174  28 t-inv F
  0.111111 -0.444444  0.222222    0.00137174  28 t-inv F
 -0.111111  0.444444 -0.222222    0.00137174  28 t-inv F
  0.222222  0.111111 -0.444444    0.00137174  28 t-inv F
 -0.222222 -0.111111  0.444444    0.00137174  28 t-inv F
  0.222222  0.111111  0.666667    0.00137174  28 t-inv F
 -0.222222 -0.111111 -0.666667    0.00137174  28 t-inv F
 -0.444444 -0.666667 -0.555556    0.00137174  28 t-inv F
  0.444444  0.666667  0.555556    0.00137174  28 t-inv F
  0.111111  0.555556 -0.111111    0.00137174  28 t-inv F
 -0.111111 -0.555556  0.111111    0.00137174  28 t-inv F
  0.111111 -0.555556 -0.111111    0.00137174  28 t-inv F
 -0.111111  0.555556  0.111111    0.00137174  28 t-inv F
 -0.666667 -0.111111 -0.222222    0.00137174  28 t-inv F
  0.666667  0.111111  0.222222    0.00137174  28 t-inv F
  0.555556  0.666667  0.444444    0.00137174  28 t-inv F
 -0.555556 -0.666667 -0.444444    0.00137174  28 t-inv F
 -0.555556 -0.444444 -0.666667    0.00137174  28 t-inv F
  0.555556  0.444444  0.666667    0.00137174  28 t-inv F
 -0.111111  0.111111  0.555556    0.00137174  28 t-inv F
  0.111111 -0.111111 -0.555556    0.00137174  28 t-inv F
  0.666667  0.222222  0.111111    0.00137174  28 t-inv F
 -0.666667 -0.222222 -0.111111    0.00137174  28 t-inv F
 -0.111111  0.111111 -0.555556    0.00137174  28 t-inv F
  0.111111 -0.111111  0.555556    0.00137174  28 t-inv F
 -0.222222 -0.666667 -0.111111    0.00137174  28 t-inv F
  0.222222  0.666667  0.111111    0.00137174  28 t-inv F
  0.444444  0.555556  0.666667    0.00137174  28 t-inv F
 -0.444444 -0.555556 -0.666667    0.00137174  28 t-inv F
 -0.666667 -0.555556 -0.444444    0.00137174  28 t-inv F
  0.666667  0.555556  0.444444    0.00137174  28 t-inv F
  0.555556 -0.111111  0.111111    0.00137174  28 t-inv F
 -0.555556  0.111111 -0.111111    0.00137174  28 t-inv F
  0.111111  0.666667  0.222222    0.00137174  28 t-inv F
 -0.111111 -0.666667 -0.222222    0.00137174  28 t-inv F
 -0.555556 -0.111111  0.111111    0.00137174  28 t-inv F
  0.555556  0.111111 -0.111111    0.00137174  28 t-inv F
 -0.111111 -0.222222 -0.666667    0.00137174  28 t-inv F
  0.111111  0.222222  0.666667    0.00137174  28 t-inv F
  0.666667  0.444444  0.555556    0.00137174  28 t-inv F
 -0.666667 -0.444444 -0.555556    0.00137174  28 t-inv F
  0.444444 -0.111111 -0.222222    0.00137174  28 t-inv F
 -0.444444  0.111111  0.222222    0.00137174  28 t-inv F
 -0.222222  0.444444 -0.111111    0.00137174  28 t-inv F
  0.222222 -0.444444  0.111111    0.00137174  28 t-inv F
 -0.111111 -0.222222  0.444444    0.00137174  28 t-inv F
  0.111111  0.222222 -0.444444    0.00137174  28 t-inv F
 -0.444444 -0.333333 -0.111111    0.00137174  29 t-inv F
  0.111111  0.444444  0.333333    0.00137174  29 t-inv F
 -0.111111 -0.444444 -0.333333    0.00137174  29 t-inv F
  0.333333  0.111111  0.444444    0.00137174  29 t-inv F
 -0.333333 -0.111111 -0.444444    0.00137174  29 t-inv F
  0.333333  0.222222 -0.111111    0.00137174  29 t-inv F
 -0.333333 -0.222222  0.111111    0.00137174  29 t-inv F
  0.444444  0.111111  0.333333    0.00137174  29 t-inv F
 -0.444444 -0.111111 -0.333333    0.00137174  29 t-inv F
  0.111111 -0.333333 -0.222222    0.00137174  29 t-inv F
 -0.111111  0.333333  0.222222    0.00137174  29 t-inv F
  0.222222  0.333333 -0.111111    0.00137174  29 t-inv F
 -0.222222 -0.333333  0.111111    0.00137174  29 t-inv F
  0.111111 -0.222222 -0.333333    0.00137174  29 t-inv F
 -0.111111  0.222222  0.333333    0.00137174  29 t-inv F
  0.333333  0.444444  0.111111    0.00137174  29 t-inv F
 -0.333333 -0.444444 -0.111111    0.00137174  29 t-inv F
 -0.222222  0.111111 -0.333333    0.00137174  29 t-inv F
  0.222222 -0.111111  0.333333    0.00137174  29 t-inv F
 -0.333333  0.111111 -0.222222    0.00137174  29 t-inv F
  0.333333 -0.111111  0.222222    0.00137174  29 t-inv F
  0.111111  0.333333  0.444444    0.00137174  29 t-inv F
 -0.111111 -0.333333 -0.444444    0.00137174  29 t-inv F
  0.444444 -0.333333 -0.111111    0.00137174  30 t-inv F
  0.111111 -0.444444  0.333333    0.00137174  30 t-inv F
 -0.111111  0.444444 -0.333333    0.00137174  30 t-inv F
  0.333333  0.111111 -0.444444    0.00137174  30 t-inv F
 -0.333333 -0.111111  0.444444    0.00137174  30 t-inv F
  0.333333  0.222222  0.777778    0.00137174  30 t-inv F
 -0.333333 -0.222222 -0.777778    0.00137174  30 t-inv F
 -0.444444 -0.777778 -0.555556    0.00137174  30 t-inv F
  0.444444  0.777778  0.555556    0.00137174  30 t-inv F
  0.111111  0.555556 -0.222222    0.00137174  30 t-inv F
 -0.111111 -0.555556  0.222222    0.00137174  30 t-inv F
  0.222222 -0.555556 -0.111111    0.00137174  30 t-inv F
 -0.222222  0.555556  0.111111    0.00137174  30 t-inv F
 -0.777778 -0.222222 -0.333333    0.00137174  30 t-inv F
  0.777778  0.222222  0.333333    0.00137174  30 t-inv F
  0.555556  0.777778  0.444444    0.00137174  30 t-inv F
 -0.555556 -0.777778 -0.444444    0.00137174  30 t-inv F
 -0.555556 -0.444444 -0.777778    0.00137174  30 t-inv F
  0.555556  0.444444  0.777778    0.00137174  30 t-inv F
 -0.222222  0.111111  0.555556    0.00137174  30 t-inv F
  0.222222 -0.111111 -0.555556    0.00137174  30 t-inv F
  0.777778  0.333333  0.222222    0.00137174  30 t-inv F
 -0.777778 -0.333333 -0.222222    0.00137174  30 t-inv F
 -0.111111  0.222222 -0.555556    0.00137174  30 t-inv F
  0.111111 -0.222222  0.555556    0.00137174  30 t-inv F
 -0.333333 -0.777778 -0.222222    0.00137174  30 t-inv F
  0.333333  0.777778  0.222222    0.00137174  30 t-inv F
  0.444444  0.555556  0.777778    0.00137174  30 t-inv F
 -0.444444 -0.555556 -0.777778    0.00137174  30 t-inv F
 -0.777778 -0.555556 -0.444444    0.00137174  30 t-inv F
  0.777778  0.555556  0.444444    0.00137174  30 t-inv F
  0.555556 -0.222222  0.111111    0.00137174  30 t-inv F
 -0.555556  0.222222 -0.111111    0.00137174  30 t-inv F
  0.222222  0.777778  0.333333    0.00137174  30 t-inv F
 -0.222222 -0.777778 -0.333333    0.00137174  30 t-inv F
 -0.555556 -0.111111  0.222222    0.00137174  30 t-inv F
  0.555556  0.111111 -0.222222    0.00137174  30 t-inv F
 -0.222222 -0.333333 -0.777778    0.00137174  30 t-inv F
  0.222222  0.333333  0.777778    0.00137174  30 t-inv F
  0.777778  0.444444  0.555556    0.00137174  30 t-inv F
 -0.777778 -0.444444 -0.555556    0.00137174  30 t-inv F
  0.444444 -0.111111 -0.333333    0.00137174  30 t-inv F
 -0.444444  0.111111  0.333333    0.00137174  30 t-inv F
 -0.333333  0.444444 -0.111111    0.00137174  30 t-inv F
  0.333333 -0.444444  0.111111    0.00137174  30 t-inv F
 -0.111111 -0.333333  0.444444    0.00137174  30 t-inv F
  0.111111  0.333333 -0.444444    0.00137174  30 t-inv F
  0.333333 -0.333333 -0.111111    0.00137174  31 t-inv F
  0.111111 -0.333333  0.333333    0.00137174  31 t-inv F
 -0.111111  0.333333 -0.333333    0.00137174  31 t-inv F
  0.333333  0.111111 -0.333333    0.00137174  31 t-inv F
 -0.333333 -0.111111  0.333333    0.00137174  31 t-inv F
  0.333333  0.222222  0.666667    0.00137174  31 t-inv F
 -0.333333 -0.222222 -0.666667    0.00137174  31 t-inv F
 -0.333333 -0.666667 -0.444444    0.00137174  31 t-inv F
  0.333333  0.666667  0.444444    0.00137174  31 t-inv F
  0.111111  0.444444 -0.222222    0.00137174  31 t-inv F
 -0.111111 -0.444444  0.222222    0.00137174  31 t-inv F
  0.222222 -0.444444 -0.111111    0.00137174  31 t-inv F
 -0.222222  0.444444  0.111111    0.00137174  31 t-inv F
 -0.666667 -0.222222 -0.333333    0.00137174  31 t-inv F
  0.666667  0.222222  0.333333    0.00137174  31 t-inv F
  0.444444  0.666667  0.333333    0.00137174  31 t-inv F
 -0.444444 -0.666667 -0.333333    0.00137174  31 t-inv F
 -0.444444 -0.333333 -0.666667    0.00137174  31 t-inv F
  0.444444  0.333333  0.666667    0.00137174  31 t-inv F
 -0.222222  0.111111  0.444444    0.00137174  31 t-inv F
  0.222222 -0.111111 -0.444444    0.00137174  31 t-inv F
  0.666667  0.333333  0.222222    0.00137174  31 t-inv F
 -0.666667 -0.333333 -0.222222    0.00137174  31 t-inv F
 -0.111111  0.222222 -0.444444    0.00137174  31 t-inv F
  0.111111 -0.222222  0.444444    0.00137174  31 t-inv F
 -0.333333 -0.666667 -0.222222    0.00137174  31 t-inv F
  0.333333  0.666667  0.222222    0.00137174  31 t-inv F
  0.333333  0.444444  0.666667    0.00137174  31 t-inv F
 -0.333333 -0.444444 -0.666667    0.00137174  31 t-inv F
 -0.666667 -0.444444 -0.333333    0.00137174  31 t-inv F
  0.666667  0.444444  0.333333    0.00137174  31 t-inv F
  0.444444 -0.222222  0.111111    0.00137174  31 t-inv F
 -0.444444  0.222222 -0.111111    0.00137174  31 t-inv F
  0.222222  0.666667  0.333333    0.00137174  31 t-inv F
 -0.222222 -0.666667 -0.333333    0.00137174  31 t-inv F
 -0.444444 -0.111111  0.222222    0.00137174  31 t-inv F
  0.444444  0.111111 -0.222222    0.00137174  31 t-inv F
 -0.222222 -0.333333 -0.666667    0.00137174  31 t-inv F
  0.222222  0.333333  0.666667    0.00137174  31 t-inv F
  0.666667  0.333333  0.444444    0.00137174  31 t-inv F
 -0.666667 -0.333333 -0.444444    0.00137174  31 t-inv F
  0.333333 -0.111111 -0.333333    0.00137174  31 t-inv F
 -0.333333  0.111111  0.333333    0.00137174  31 t-inv F
 -0.333333  0.333333 -0.111111    0.00137174  31 t-inv F
  0.333333 -0.333333  0.111111    0.00137174  31 t-inv F
 -0.111111 -0.333333  0.333333    0.00137174  31 t-inv F
  0.111111  0.333333 -0.333333    0.00137174  31 t-inv F
  0.222222 -0.333333 -0.111111    0.00137174  32 t-inv F
  0.111111 -0.222222  0.333333    0.00137174  32 t-inv F
 -0.111111  0.222222 -0.333333    0.00137174  32 t-inv F
  0.333333  0.111111 -0.222222    0.00137174  32 t-inv F
 -0.333333 -0.111111  0.222222    0.00137174  32 t-inv F
  0.333333  0.222222  0.555556    0.00137174  32 t-inv F
 -0.333333 -0.222222 -0.555556    0.00137174  32 t-inv F
 -0.222222 -0.555556 -0.333333    0.00137174  32 t-inv F
  0.222222  0.555556  0.333333    0.00137174  32 t-inv F
  0.111111  0.333333 -0.222222    0.00137174  32 t-inv F
 -0.111111 -0.333333  0.222222    0.00137174  32 t-inv F
 -0.555556 -0.222222 -0.333333    0.00137174  32 t-inv F
  0.555556  0.222222  0.333333    0.00137174  32 t-inv F
  0.333333  0.555556  0.222222    0.00137174  32 t-inv F
 -0.333333 -0.555556 -0.222222    0.00137174  32 t-inv F
 -0.222222  0.111111  0.333333    0.00137174  32 t-inv F
  0.222222 -0.111111 -0.333333    0.00137174  32 t-inv F
  0.555556  0.333333  0.222222    0.00137174  32 t-inv F
 -0.555556 -0.333333 -0.222222    0.00137174  32 t-inv F
  0.222222  0.333333  0.555556    0.00137174  32 t-inv F
 -0.222222 -0.333333 -0.555556    0.00137174  32 t-inv F
  0.333333 -0.222222  0.111111    0.00137174  32 t-inv F
 -0.333333  0.222222 -0.111111    0.00137174  32 t-inv F
  0.444444 -0.444444 -0.111111    0.00137174  33 t-inv F
  0.111111 -0.444444  0.444444    0.00137174  33 t-inv F
 -0.111111  0.444444 -0.444444    0.00137174  33 t-inv F
  0.444444  0.111111 -0.444444    0.00137174  33 t-inv F
 -0.444444 -0.111111  0.444444    0.00137174  33 t-inv F
  0.444444  0.333333  0.888889    0.00137174  33 t-inv F
 -0.444444 -0.333333 -0.888889    0.00137174  33 t-inv F
 -0.444444 -0.888889 -0.555556    0.00137174  33 t-inv F
  0.444444  0.888889  0.555556    0.00137174  33 t-inv F
  0.111111  0.555556 -0.333333    0.00137174  33 t-inv F
 -0.111111 -0.555556  0.333333    0.00137174  33 t-inv F
  0.333333 -0.555556 -0.111111    0.00137174  33 t-inv F
 -0.333333  0.555556  0.111111    0.00137174  33 t-inv F
 -0.888889 -0.333333 -0.444444    0.00137174  33 t-inv F
  0.888889  0.333333  0.444444    0.00137174  33 t-inv F
 -0.555556 -0.444444 -0.888889    0.00137174  33 t-inv F
  0.555556  0.444444  0.888889    0.00137174  33 t-inv F
 -0.333333  0.111111  0.555556    0.00137174  33 t-inv F
  0.333333 -0.111111 -0.555556    0.00137174  33 t-inv F
 -0.444444 -0.888889 -0.333333    0.00137174  33 t-inv F
  0.444444  0.888889  0.333333    0.00137174  33 t-inv F
 -0.888889 -0.555556 -0.444444    0.00137174  33 t-inv F
  0.888889  0.555556  0.444444    0.00137174  33 t-inv F
  0.333333 -0.444444 -0.111111    0.00137174  34 t-inv F
  0.111111 -0.333333  0.444444    0.00137174  34 t-inv F
 -0.111111  0.333333 -0.444444    0.00137174  34 t-inv F
  0.444444  0.111111 -0.333333    0.00137174  34 t-inv F
 -0.444444 -0.111111  0.333333    0.00137174  34 t-inv F
  0.444444  0.333333  0.777778    0.00137174  34 t-inv F
 -0.444444 -0.333333 -0.777778    0.00137174  34 t-inv F
 -0.333333 -0.777778 -0.444444    0.00137174  34 t-inv F
  0.333333  0.777778  0.444444    0.00137174  34 t-inv F
  0.111111  0.444444 -0.333333    0.00137174  34 t-inv F
 -0.111111 -0.444444  0.333333    0.00137174  34 t-inv F
 -0.777778 -0.333333 -0.444444    0.00137174  34 t-inv F
  0.777778  0.333333  0.444444    0.00137174  34 t-inv F
  0.444444  0.777778  0.333333    0.00137174  34 t-inv F
 -0.444444 -0.777778 -0.333333    0.00137174  34 t-inv F
 -0.333333  0.111111  0.444444    0.00137174  34 t-inv F
  0.333333 -0.111111 -0.444444    0.00137174  34 t-inv F
  0.777778  0.444444  0.333333    0.00137174  34 t-inv F
 -0.777778 -0.444444 -0.333333    0.00137174  34 t-inv F
  0.333333  0.444444  0.777778    0.00137174  34 t-inv F
 -0.333333 -0.444444 -0.777778    0.00137174  34 t-inv F
  0.444444 -0.333333  0.111111    0.00137174  34 t-inv F
 -0.444444  0.333333 -0.111111    0.00137174  34 t-inv F
  0.333333 -0.444444 -0.222222    0.00137174  35 t-inv F
  0.222222 -0.333333  0.444444    0.00137174  35 t-inv F
 -0.222222  0.333333 -0.444444    0.00137174  35 t-inv F
  0.444444  0.222222 -0.333333    0.00137174  35 t-inv F
 -0.444444 -0.222222  0.333333    0.00137174  35 t-inv F
  0.444444  0.222222  0.777778    0.00137174  35 t-inv F
 -0.444444 -0.222222 -0.777778    0.00137174  35 t-inv F
 -0.333333 -0.777778 -0.555556    0.00137174  35 t-inv F
  0.333333  0.777778  0.555556    0.00137174  35 t-inv F
  0.222222  0.555556 -0.222222    0.00137174  35 t-inv F
 -0.222222 -0.555556  0.222222    0.00137174  35 t-inv F
  0.222222 -0.555556 -0.222222    0.00137174  35 t-inv F
 -0.222222  0.555556  0.222222    0.00137174  35 t-inv F
 -0.777778 -0.222222 -0.444444    0.00137174  35 t-inv F
  0.777778  0.222222  0.444444    0.00137174  35 t-inv F
 -0.555556 -0.333333 -0.777778    0.00137174  35 t-inv F
  0.555556  0.333333  0.777778    0.00137174  35 t-inv F
 -0.222222  0.222222  0.555556    0.00137174  35 t-inv F
  0.222222 -0.222222 -0.555556    0.00137174  35 t-inv F
 -0.444444 -0.777778 -0.222222    0.00137174  35 t-inv F
  0.444444  0.777778  0.222222    0.00137174  35 t-inv F
 -0.777778 -0.555556 -0.333333    0.00137174  35 t-inv F
  0.777778  0.555556  0.333333    0.00137174  35 t-inv F


--------------------------------------------------------------------------------------------------------




 Dimension of arrays:
   k-points           NKPTS =     35   k-points in BZ     NKDIM =     35   number of bands    NBANDS=     12
   number of dos      NEDOS =    301   number of ions     NIONS =      2
   non local maximal  LDIM  =      5   non local SUM 2l+1 LMDIM =     13
   total plane-waves  NPLWV =  21952
   max r-space proj   IRMAX =      1   max aug-charges    IRDMAX=  24008
   dimension x,y,z NGX =    28 NGY =   28 NGZ =   28
   dimension x,y,z NGXF=    56 NGYF=   56 NGZF=   56
   support grid    NGXF=    56 NGYF=   56 NGZF=   56
   ions per type =               1   1
   NGX,Y,Z   is equivalent  to a cutoff of   9.78,  9.78,  9.78 a.u.
   NGXF,Y,Z  is equivalent  to a cutoff of  19.55, 19.55, 19.55 a.u.

 SYSTEM =  unknown system                          
 POSCAR =  Generated by cif2cell 1.2.11.  :  Failed

 Startparameter for this run:
   NWRITE =      2    write-flag & timer
   PREC   = accura    normal or accurate (medium, high low for compatibility)
   ISTART =      1    job   : 0-new  1-cont  2-samecut
   ICHARG =      0    charge: 1-file 2-atom 10-const
   ISPIN  =      1    spin polarized calculation?
   LNONCOLLINEAR =      F non collinear calculations
   LSORBIT =      F    spin-orbit coupling
   INIWAV =      1    electr: 0-lowe 1-rand  2-diag
   LASPH  =      F    aspherical Exc in radial PAW
   METAGGA=      F    non-selfconsistent MetaGGA calc.

 Electronic Relaxation 1
   ENCUT  =  324.4 eV  23.84 Ry    4.88 a.u.   6.99  6.99  6.99*2*pi/ulx,y,z
   ENINI  =  324.4     initial cutoff
   ENAUG  =  503.9 eV  augmentation charge cutoff
   NELM   =     60;   NELMIN=  4; NELMDL=  0     # of ELM steps 
   EDIFF  = 0.1E-07   stopping-criterion for ELM
   LREAL  =      F    real-space projection
   NLSPLINE    = F    spline interpolate recip. space projectors
   LCOMPAT=      F    compatible to vasp.4.4
   GGA_COMPAT  = T    GGA compatible to vasp.4.4-vasp.4.6
   LMAXPAW     = -100 max onsite density
   LMAXMIX     =    4 max onsite mixed and CHGCAR
   VOSKOWN=      0    Vosko Wilk Nusair interpolation
   ROPT   =    0.00000   0.00000
 Ionic relaxation
   EDIFFG = 0.1E-06   stopping-criterion for IOM
   NSW    =      1    number of steps for IOM
   NBLOCK =      1;   KBLOCK =      1    inner block; outer block 
   IBRION =      8    ionic relax: 0-MD 1-quasi-New 2-CG
   NFREE  =      0    steps in history (QN), initial steepest desc. (CG)
   ISIF   =      3    stress and relaxation
   IWAVPR =     11    prediction:  0-non 1-charg 2-wave 3-comb
   ISYM   =      2    0-nonsym 1-usesym 2-fastsym
   LCORR  =      T    Harris-Foulkes like correction to forces

   POTIM  = 0.2000    time-step for ionic-motion
   TEIN   =    0.0    initial temperature
   TEBEG  =    0.0;   TEEND  =   0.0 temperature during run
   SMASS  =  -3.00    Nose mass-parameter (am)
   estimated Nose-frequenzy (Omega)   =  0.10E-29 period in steps =****** mass=  -0.518E-27a.u.
   SCALEE = 1.0000    scale energy and forces
   NPACO  =    256;   APACO  = 16.0  distance and # of slots for P.C.
   PSTRESS=    0.0 pullay stress

  Mass of Ions in am
   POMASS =  39.10 79.90
  Ionic Valenz
   ZVAL   =   7.00  7.00
  Atomic Wigner-Seitz radii
   RWIGS  =  -1.00 -1.00
  virtual crystal weights 
   VCA    =   1.00  1.00
   NELECT =      14.0000    total number of electrons
   NUPDOWN=      -1.0000    fix difference up-down

 DOS related values:
   EMIN   =  10.00;   EMAX   =-10.00  energy-range for DOS
   EFERMI =   0.00
   ISMEAR =    -5;   SIGMA  =   0.05  broadening in eV -4-tet -1-fermi 0-gaus

 Electronic relaxation 2 (details)
   IALGO  =     38    algorithm
   LDIAG  =      T    sub-space diagonalisation (order eigenvalues)
   LSUBROT=      F    optimize rotation matrix (better conditioning)
   TURBO    =      0    0=normal 1=particle mesh
   IRESTART =      0    0=no restart 2=restart with 2 vectors
   NREBOOT  =      0    no. of reboots
   NMIN     =      0    reboot dimension
   EREF     =   0.00    reference energy to select bands
   IMIX   =      4    mixing-type and parameters
     AMIX     =   0.40;   BMIX     =  1.00
     AMIX_MAG =   1.60;   BMIX_MAG =  1.00
     AMIN     =   0.10
     WC   =   100.;   INIMIX=   1;  MIXPRE=   1;  MAXMIX= -45

 Intra band minimization:
   WEIMIN = 0.0010     energy-eigenvalue tresh-hold
   EBREAK =  0.21E-09  absolut break condition
   DEPER  =   0.30     relativ break condition  

   TIME   =   0.40     timestep for ELM

  volume/ion in A,a.u.               =      38.17       257.57
  Fermi-wavevector in a.u.,A,eV,Ry     =   0.930126  1.757684 11.770874  0.865135
  Thomas-Fermi vector in A             =   2.056482

 Write flags
   LWAVE        =      T    write WAVECAR
   LDOWNSAMPLE  =      F    k-point downsampling of WAVECAR
   LCHARG       =      T    write CHGCAR
   LVTOT        =      F    write LOCPOT, total local potential
   LVHAR        =      F    write LOCPOT, Hartree potential only
   LELF         =      F    write electronic localiz. function (ELF)
   LORBIT       =      0    0 simple, 1 ext, 2 COOP (PROOUT), +10 PAW based schemes


 Dipole corrections
   LMONO  =      F    monopole corrections only (constant potential shift)
   LDIPOL =      F    correct potential (dipole corrections)
   IDIPOL =      0    1-x, 2-y, 3-z, 4-all directions 
   EPSILON=  1.0000000 bulk dielectric constant

 Exchange correlation treatment:
   GGA     =    --    GGA type
   LEXCH   =     8    internal setting for exchange type
   VOSKOWN=      0    Vosko Wilk Nusair interpolation
   LHFCALC =     F    Hartree Fock is set to
   LHFONE  =     F    Hartree Fock one center treatment
   AEXX    =    0.0000 exact exchange contribution

 Linear response parameters
   LEPSILON=     T    determine dielectric tensor
   LRPA    =     F    only Hartree local field effects (RPA)
   LNABLA  =     F    use nabla operator in PAW spheres
   LVEL    =     F    velocity operator in full k-point grid
   LINTERFAST=   F  fast interpolation
   KINTER  =     0    interpolate to denser k-point grid
   CSHIFT  =0.1000    complex shift for real part using Kramers Kronig
   OMEGAMAX=  -1.0    maximum frequency
   DEG_THRESHOLD= 0.2000000E-02 threshold for treating states as degnerate
   RTIME   =   -0.100 relaxation time in fs
  (WPLASMAI=    0.000 imaginary part of plasma frequency in eV, 0.658/RTIME)
   DFIELD  = 0.0000000 0.0000000 0.0000000 field for delta impulse in time

 Orbital magnetization related:
   ORBITALMAG=     F  switch on orbital magnetization
   LCHIMAG   =     F  perturbation theory with respect to B field
   DQ        =  0.001000  dq finite difference perturbation B field
   LLRAUG    =     F  two centre corrections for induced B field



--------------------------------------------------------------------------------------------------------


 linear response using symmetry
 charge density and potential will be updated during run
 non-spin polarized calculation
 Variant of blocked Davidson
 Davidson routine will perform the subspace rotation
 perform sub-space diagonalisation
    after iterative eigenvector-optimisation
 modified Broyden-mixing scheme, WC =      100.0
 initial mixing is a Kerker type mixing with AMIX =  0.4000 and BMIX =      1.0000
 Hartree-type preconditioning will be used
 using additional bands            5
 reciprocal scheme for non local part
 use partial core corrections
 calculate Harris-corrections to forces   (improved forces if not selfconsistent)
 use gradient corrections 
 use of overlap-Matrix (Vanderbilt PP)
 Fermi weights with tetrahedron method with Bloechl corrections


--------------------------------------------------------------------------------------------------------


  energy-cutoff  :      324.43
  volume of cell :       76.34
      direct lattice vectors                 reciprocal lattice vectors
    -0.000000000  3.366915960  3.366915960    -0.148503855  0.148503855  0.148503855
     3.366915960 -0.000000000  3.366915960     0.148503855 -0.148503855  0.148503855
     3.366915960  3.366915960  0.000000000     0.148503855  0.148503855 -0.148503855

  length of vectors
     4.761538213  4.761538213  4.761538213     0.257216222  0.257216222  0.257216222



 old parameters found on file WAVECAR:
  energy-cutoff  :      324.43
  volume of cell :       76.34
      direct lattice vectors                 reciprocal lattice vectors
    -0.000000000  3.366915960  3.366915960    -0.148503855  0.148503855  0.148503855
     3.366915960 -0.000000000  3.366915960     0.148503855 -0.148503855  0.148503855
     3.366915960  3.366915960  0.000000000     0.148503855  0.148503855 -0.148503855

  length of vectors


 k-points in units of 2pi/SCALE and weight: Gamma-point only                        
   0.00000000  0.00000000  0.00000000       0.001
  -0.11060363  0.11060363  0.11060363       0.011
  -0.22120725  0.22120725  0.22120725       0.011
  -0.33181088  0.33181088  0.33181088       0.011
  -0.44241450  0.44241450  0.44241450       0.011
   0.00000000  0.00000000  0.22120725       0.008
  -0.11060363  0.11060363  0.33181088       0.033
  -0.22120725  0.22120725  0.44241450       0.033
  -0.33181088  0.33181088  0.55301813       0.033
   0.55301813 -0.55301813 -0.33181088       0.033
   0.44241450 -0.44241450 -0.22120725       0.033
   0.33181088 -0.33181088 -0.11060363       0.033
   0.22120725 -0.22120725  0.00000000       0.016
   0.00000000  0.00000000  0.44241450       0.008
  -0.11060363  0.11060363  0.55301813       0.033
  -0.22120725  0.22120725  0.66362175       0.033
   0.66362175 -0.66362175 -0.22120725       0.033
   0.55301813 -0.55301813 -0.11060363       0.033
   0.44241450 -0.44241450  0.00000000       0.016
   0.00000000  0.00000000  0.66362175       0.008
  -0.11060363  0.11060363  0.77422538       0.033
   0.77422538 -0.77422538 -0.11060363       0.033
   0.66362175 -0.66362175  0.00000000       0.016
   0.00000000  0.00000000  0.88482900       0.008
   0.88482900 -0.88482900  0.00000000       0.016
   0.00000000  0.22120725  0.44241450       0.033
  -0.11060363  0.33181088  0.55301813       0.066
   0.77422538 -0.55301813 -0.33181088       0.066
   0.00000000  0.22120725  0.66362175       0.033
   0.88482900 -0.66362175 -0.22120725       0.066
   0.77422538 -0.55301813 -0.11060363       0.066
   0.66362175 -0.44241450  0.00000000       0.033
   0.99543263 -0.77422538 -0.11060363       0.033
   0.88482900 -0.66362175  0.00000000       0.033
   0.99543263 -0.55301813 -0.11060363       0.033

 k-points in reciprocal lattice and weights: Gamma-point only                        
   0.00000000  0.00000000  0.00000000       0.001
   0.11111111  0.00000000  0.00000000       0.011
   0.22222222  0.00000000  0.00000000       0.011
   0.33333333  0.00000000  0.00000000       0.011
   0.44444444  0.00000000  0.00000000       0.011
   0.11111111  0.11111111  0.00000000       0.008
   0.22222222  0.11111111  0.00000000       0.033
   0.33333333  0.11111111  0.00000000       0.033
   0.44444444  0.11111111  0.00000000       0.033
  -0.44444444  0.11111111  0.00000000       0.033
  -0.33333333  0.11111111  0.00000000       0.033
  -0.22222222  0.11111111  0.00000000       0.033
  -0.11111111  0.11111111  0.00000000       0.016
   0.22222222  0.22222222  0.00000000       0.008
   0.33333333  0.22222222  0.00000000       0.033
   0.44444444  0.22222222  0.00000000       0.033
  -0.44444444  0.22222222  0.00000000       0.033
  -0.33333333  0.22222222  0.00000000       0.033
  -0.22222222  0.22222222  0.00000000       0.016
   0.33333333  0.33333333  0.00000000       0.008
   0.44444444  0.33333333  0.00000000       0.033
  -0.44444444  0.33333333  0.00000000       0.033
  -0.33333333  0.33333333  0.00000000       0.016
   0.44444444  0.44444444  0.00000000       0.008
  -0.44444444  0.44444444  0.00000000       0.016
   0.33333333  0.22222222  0.11111111       0.033
   0.44444444  0.22222222  0.11111111       0.066
  -0.44444444  0.22222222  0.11111111       0.066
   0.44444444  0.33333333  0.11111111       0.033
  -0.44444444  0.33333333  0.11111111       0.066
  -0.33333333  0.33333333  0.11111111       0.066
  -0.22222222  0.33333333  0.11111111       0.033
  -0.44444444  0.44444444  0.11111111       0.033
  -0.33333333  0.44444444  0.11111111       0.033
  -0.33333333  0.44444444  0.22222222       0.033

 position of ions in fractional coordinates (direct lattice) 
   0.00000000  0.00000000  0.00000000
   0.50000000  0.50000000  0.50000000

 position of ions in cartesian coordinates  (Angst):
   0.00000000  0.00000000  0.00000000
   3.36691596  3.36691596  3.36691596



--------------------------------------------------------------------------------------------------------


 k-point  1 :   0.0000 0.0000 0.0000  plane waves:     965
 k-point  2 :   0.1111 0.0000 0.0000  plane waves:     986
 k-point  3 :   0.2222 0.0000 0.0000  plane waves:     995
 k-point  4 :   0.3333 0.0000 0.0000  plane waves:    1008
 k-point  5 :   0.4444 0.0000 0.0000  plane waves:    1017
 k-point  6 :   0.1111 0.1111 0.0000  plane waves:     994
 k-point  7 :   0.2222 0.1111 0.0000  plane waves:     994
 k-point  8 :   0.3333 0.1111 0.0000  plane waves:    1006
 k-point  9 :   0.4444 0.1111 0.0000  plane waves:    1015
 k-point 10 :  -0.4444 0.1111 0.0000  plane waves:    1011
 k-point 11 :  -0.3333 0.1111 0.0000  plane waves:    1013
 k-point 12 :  -0.2222 0.1111 0.0000  plane waves:    1004
 k-point 13 :  -0.1111 0.1111 0.0000  plane waves:     993
 k-point 14 :   0.2222 0.2222 0.0000  plane waves:     998
 k-point 15 :   0.3333 0.2222 0.0000  plane waves:    1013
 k-point 16 :   0.4444 0.2222 0.0000  plane waves:    1017
 k-point 17 :  -0.4444 0.2222 0.0000  plane waves:    1014
 k-point 18 :  -0.3333 0.2222 0.0000  plane waves:    1011
 k-point 19 :  -0.2222 0.2222 0.0000  plane waves:    1015
 k-point 20 :   0.3333 0.3333 0.0000  plane waves:    1018
 k-point 21 :   0.4444 0.3333 0.0000  plane waves:    1019
 k-point 22 :  -0.4444 0.3333 0.0000  plane waves:    1015
 k-point 23 :  -0.3333 0.3333 0.0000  plane waves:    1015
 k-point 24 :   0.4444 0.4444 0.0000  plane waves:    1006
 k-point 25 :  -0.4444 0.4444 0.0000  plane waves:    1009
 k-point 26 :   0.3333 0.2222 0.1111  plane waves:    1000
 k-point 27 :   0.4444 0.2222 0.1111  plane waves:    1013
 k-point 28 :  -0.4444 0.2222 0.1111  plane waves:    1012
 k-point 29 :   0.4444 0.3333 0.1111  plane waves:    1022
 k-point 30 :  -0.4444 0.3333 0.1111  plane waves:    1022
 k-point 31 :  -0.3333 0.3333 0.1111  plane waves:    1016
 k-point 32 :  -0.2222 0.3333 0.1111  plane waves:    1019
 k-point 33 :  -0.4444 0.4444 0.1111  plane waves:    1017
 k-point 34 :  -0.3333 0.4444 0.1111  plane waves:    1008
 k-point 35 :  -0.3333 0.4444 0.2222  plane waves:    1022

 maximum and minimum number of plane-waves per node :      1022      965

 maximum number of plane-waves:      1022
 maximum index in each direction: 
   IXMAX=    7   IYMAX=    6   IZMAX=    6
   IXMIN=   -7   IYMIN=   -7   IZMIN=   -7


 serial   3D FFT for wavefunctions
 parallel 3D FFT for charge:
    minimum data exchange during FFTs selected (reduces bandwidth)


 total amount of memory used by VASP MPI-rank0    44300. kBytes
=======================================================================

   base      :      30000. kBytes
   nonl-proj :       7487. kBytes
   fftplans  :       1619. kBytes
   grid      :       3411. kBytes
   one-center:         16. kBytes
   wavefun   :       1767. kBytes

     INWAV:  cpu time    0.0427: real time    0.0659
 Broyden mixing: mesh for mixing (old mesh)
   NGX = 13   NGY = 13   NGZ = 13
  (NGX  = 56   NGY  = 56   NGZ  = 56)
  gives a total of   2197 points

 charge density for first step will be calculated from the start-wavefunctions


--------------------------------------------------------------------------------------------------------


 Maximum index for augmentation-charges         5811 (set IRDMAX)


--------------------------------------------------------------------------------------------------------


 initial charge from wavefunction
 First call to EWALD:  gamma=   0.418
 Maximum number of real-space cells 3x 3x 3
 Maximum number of reciprocal cells 3x 3x 3

    FEWALD:  cpu time    0.0007: real time    0.0007


--------------------------------------- Iteration      1(   1)  ---------------------------------------


    POTLOK:  cpu time    0.0394: real time    0.0397
    SETDIJ:  cpu time    0.0039: real time    0.0039
     EDDAV:  cpu time    0.3939: real time    0.3940
 BZINTS: Fermi energy: -2.984168; 14.000000 electrons
         Band energy:-137.418178;  BLOECHL correction:  0.000000
       DOS:  cpu time    0.0007: real time    0.0007
    CHARGE:  cpu time    0.0419: real time    0.0420
    MIXING:  cpu time    0.0010: real time    0.0010
    --------------------------------------------
      LOOP:  cpu time    0.4807: real time    0.4812

 eigenvalue-minimisations  :   584
 total energy-change (2. order) :-0.6184248E+01  (-0.1457130E-09)
 number of electron      14.0000012 magnetization 
 augmentation part        2.3384947 magnetization 

 Broyden mixing:
  rms(total) = 0.25922E-05    rms(broyden)= 0.25872E-05
  rms(prec ) = 0.29459E-05
  weight for this iteration     100.00

 Free energy of the ion-electron system (eV)
  ---------------------------------------------------
  alpha Z        PSCENC =        46.57583655
  Ewald energy   TEWEN  =      -594.59979177
  -Hartree energ DENC   =      -171.05348080
  -exchange      EXHF   =         0.00000000
  -V(xc)+E(xc)   XCENC  =        21.66259588
  PAW double counting   =       707.54245125     -697.81666730
  entropy T*S    EENTRO =         0.00000000
  eigenvalues    EBANDS =      -137.41817769
  atomic energy  EATOM  =       818.92298592
  Solvation  Ediel_sol  =         0.00000000
  ---------------------------------------------------
  free energy    TOTEN  =        -6.18424795 eV

[...]
      5       0.0001      0.00000
      6       0.0001      0.00000
      7       0.0001      0.00000
      8       0.0000      0.00000
      9       0.0001      0.00000
     10       0.0001      0.00000
     11       0.0000      0.00000
     12      -0.0015      0.00000

 k-point  61 :      -0.1111    0.2222    0.2222
  band No.  band energies     occupation 
      1       0.0001      0.00000
      2      -0.0000      0.00000
      3      -0.0000      0.00000
      4      -0.0000      0.00000
      5       0.0001      0.00000
      6       0.0001      0.00000
      7       0.0001      0.00000
      8       0.0001      0.00000
      9       0.0000      0.00000
     10       0.0000      0.00000
     11       0.0001      0.00000
     12      -0.0001      0.00000

 k-point  62 :       0.5556    0.3333    0.2222
  band No.  band energies     occupation 
      1       0.0001      0.00000
      2      -0.0000      0.00000
      3      -0.0000      0.00000
      4       0.0000      0.00000
      5       0.0001      0.00000
      6       0.0001      0.00000
      7       0.0001      0.00000
      8       0.0001      0.00000
      9       0.0001      0.00000
     10       0.0000      0.00000
     11       0.0000      0.00000
     12       0.0000      0.00000

 k-point  63 :       0.6667    0.3333    0.2222
  band No.  band energies     occupation 
      1       0.0001      0.00000
      2      -0.0000      0.00000
      3      -0.0000      0.00000
      4       0.0000      0.00000
      5       0.0001      0.00000
      6       0.0001      0.00000
      7       0.0001      0.00000
      8       0.0001      0.00000
      9       0.0001      0.00000
     10       0.0000      0.00000
     11       0.0000      0.00000
     12       0.0048      0.00000

 k-point  64 :       0.7778    0.3333    0.2222
  band No.  band energies     occupation 
      1       0.0001      0.00000
      2      -0.0000      0.00000
      3      -0.0000      0.00000
      4       0.0000      0.00000
      5       0.0001      0.00000
      6       0.0001      0.00000
      7       0.0001      0.00000
      8       0.0000      0.00000
      9       0.0001      0.00000
     10       0.0001      0.00000
     11       0.0000      0.00000
     12       0.0021      0.00000

 k-point  65 :      -0.1111    0.3333    0.2222
  band No.  band energies     occupation 
      1       0.0001      0.00000
      2      -0.0000      0.00000
      3      -0.0000      0.00000
      4       0.0000      0.00000
      5       0.0001      0.00000
      6       0.0001      0.00000
      7       0.0001      0.00000
      8       0.0000      0.00000
      9       0.0001      0.00000
     10       0.0001      0.00000
     11       0.0000      0.00000
     12      -0.0012      0.00000

 k-point  66 :      -0.2222   -0.5556    0.2222
  band No.  band energies     occupation 
      1       0.0001      0.00000
      2      -0.0000      0.00000
      3      -0.0000      0.00000
      4       0.0000      0.00000
      5       0.0001      0.00000
      6       0.0001      0.00000
      7       0.0001      0.00000
      8       0.0000      0.00000
      9       0.0001      0.00000
     10       0.0000      0.00000
     11       0.0000      0.00000
     12       0.0005      0.00000

 k-point  67 :      -0.5556   -0.3333   -0.7778
  band No.  band energies     occupation 
      1       0.0001      0.00000
      2      -0.0000      0.00000
      3      -0.0000      0.00000
      4      -0.0000      0.00000
      5       0.0001      0.00000
      6       0.0001      0.00000
      7       0.0001      0.00000
      8       0.0001      0.00000
      9       0.0001      0.00000
     10       0.0001      0.00000
     11       0.0001      0.00000
     12       0.0023      0.00000

 k-point  68 :       0.0000    0.3333    0.3333
  band No.  band energies     occupation 
      1       0.0001      0.00000
      2      -0.0000      0.00000
      3      -0.0000      0.00000
      4      -0.0000      0.00000
      5       0.0001      0.00000
      6       0.0001      0.00000
      7       0.0001      0.00000
      8       0.0000      0.00000
      9       0.0000      0.00000
     10       0.0000      0.00000
     11       0.0001      0.00000
     12       0.0001      0.00000

 k-point  69 :       0.6667    0.3333    0.3333
  band No.  band energies     occupation 
      1       0.0001      0.00000
      2      -0.0000      0.00000
      3      -0.0000      0.00000
      4       0.0000      0.00000
      5       0.0001      0.00000
      6       0.0001      0.00000
      7       0.0001      0.00000
      8       0.0000      0.00000
      9       0.0001      0.00000
     10       0.0000      0.00000
     11       0.0000      0.00000
     12       0.0007      0.00000

 k-point  70 :       0.7778    0.3333    0.3333
  band No.  band energies     occupation 
      1       0.0001      0.00000
      2      -0.0000      0.00000
      3      -0.0000      0.00000
      4       0.0000      0.00000
      5       0.0001      0.00000
      6       0.0001      0.00000
      7       0.0001      0.00000
      8       0.0000      0.00000
      9       0.0000      0.00000
     10       0.0001      0.00000
     11       0.0000      0.00000
     12       0.0137      0.00000

 k-point  71 :      -0.1111    0.3333    0.3333
  band No.  band energies     occupation 
      1       0.0002      0.00000
      2      -0.0000      0.00000
      3      -0.0000      0.00000
      4      -0.0000      0.00000
      5       0.0001      0.00000
      6       0.0001      0.00000
      7       0.0001      0.00000
      8       0.0000      0.00000
      9       0.0000      0.00000
     10       0.0001      0.00000
     11       0.0000      0.00000
     12       0.0000      0.00000

 k-point  72 :       0.7778    0.4444    0.3333
  band No.  band energies     occupation 
      1       0.0002      0.00000
      2      -0.0000      0.00000
      3      -0.0000      0.00000
      4       0.0000      0.00000
      5       0.0001      0.00000
      6       0.0001      0.00000
      7       0.0001      0.00000
      8       0.0000      0.00000
      9       0.0000      0.00000
     10       0.0001      0.00000
     11       0.0000      0.00000
     12       0.0001      0.00000

 k-point  73 :      -0.1111   -0.5556    0.3333
  band No.  band energies     occupation 
      1       0.0002      0.00000
      2      -0.0000      0.00000
      3      -0.0000      0.00000
      4       0.0000      0.00000
      5       0.0001      0.00000
      6       0.0001      0.00000
      7       0.0001      0.00000
      8       0.0000      0.00000
      9       0.0000      0.00000
     10       0.0001      0.00000
     11       0.0000      0.00000
     12       0.0000      0.00000

 k-point  74 :       0.0000    0.4444    0.4444
  band No.  band energies     occupation 
      1       0.0002      0.00000
      2      -0.0000      0.00000
      3      -0.0000      0.00000
      4      -0.0000      0.00000
      5       0.0001      0.00000
      6       0.0001      0.00000
      7       0.0001      0.00000
      8       0.0000      0.00000
      9       0.0000      0.00000
     10       0.0001      0.00000
     11       0.0000      0.00000
     12       0.0000      0.00000

 k-point  75 :       0.8889    0.4444    0.4444
  band No.  band energies     occupation 
      1       0.0002      0.00000
      2      -0.0000      0.00000
      3      -0.0000      0.00000
      4      -0.0000      0.00000
      5       0.0001      0.00000
      6       0.0001      0.00000
      7       0.0001      0.00000
      8       0.0000      0.00000
      9       0.0000      0.00000
     10       0.0001      0.00000
     11       0.0000      0.00000
     12       0.0008      0.00000


------------------------ aborting loop because EDIFF is reached ----------------------------------------


    FORLOC:  cpu time    0.0018: real time    0.0017
    FORNL :  cpu time    0.1022: real time    0.1022
    STRESS:  cpu time    0.9326: real time    0.9328
    FORCOR:  cpu time    0.0340: real time    0.0340
    OFIELD:  cpu time    0.0001: real time    0.0001
    FORLOC:  cpu time    0.0019: real time    0.0019
    FORNL :  cpu time    0.1025: real time    0.1025
    STRESS:  cpu time    0.9359: real time    0.9360
    FORCOR:  cpu time    0.0363: real time    0.0363
    OFIELD:  cpu time    0.0003: real time    0.0003
    FORLOC:  cpu time    0.0020: real time    0.0020
    FORNL :  cpu time    0.1023: real time    0.1024
    STRESS:  cpu time    0.9326: real time    0.9328
    FORCOR:  cpu time    0.0341: real time    0.0341
    OFIELD:  cpu time    0.0001: real time    0.0001
    FORLOC:  cpu time    0.0018: real time    0.0018
    FORNL :  cpu time    0.1023: real time    0.1023
    STRESS:  cpu time    0.9334: real time    0.9335
    FORCOR:  cpu time    0.0341: real time    0.0341
    OFIELD:  cpu time    0.0001: real time    0.0001

 INTERNAL STRAIN TENSOR  FOR ION    2  DIRECTION 1   (eV/Angst):
 -----------------------------------------------------------------------------
     0.00415 -0.00000  0.00000
    -0.00000 -0.00112 -0.00000
     0.00000 -0.00000 -0.00112


 POSITION                   FORCE-CONSTANT FOR ION    2 DIRECTION 1 (eV/Angst/Angst)
 -----------------------------------------------------------------------------------
      0.00000      0.00000      0.00000         0.996020      0.000000      0.000000
      3.36692      3.36692      3.36692        -0.996020      0.000000      0.000000
 -----------------------------------------------------------------------------------
    total drift:                                0.000000      0.000000      0.000000


 BORN EFFECTIVE CHARGE FOR ION    2 DIRECTION 1 :  -1.140   0.000   0.000
                   rigid augmentation           :   1.382   0.000   0.000
                   ionic contribution           :   7.000   0.000   0.000
                   Berry contribution           :  -9.522   0.000   0.000


--------------------------------------------------------------------------------------------------------


  LATTYP: Found a face centered cubic cell.
 ALAT       =     6.7338319192
  
  Lattice vectors:
  
 A1 = (  -0.0000000000,   3.3669159596,   3.3669159596)
 A2 = (   3.3669159596,  -0.0000000000,   3.3669159596)
 A3 = (   3.3669159596,   3.3669159596,   0.0000000000)


Analysis of symmetry for initial positions (statically):
=====================================================================
 Subroutine PRICEL returns:
 Original cell was already a primitive cell.
 

 Routine SETGRP: Setting up the symmetry group for a 
 face centered cubic supercell.


 Subroutine GETGRP returns: Found 48 space group operations
 (whereof 48 operations were pure point group operations)
 out of a pool of 48 trial point group operations.


The static configuration has the point symmetry O_h .


Analysis of symmetry for dynamics (positions and initial velocities):
=====================================================================
 Subroutine PRICEL returns:
 Original cell was already a primitive cell.
 

 Routine SETGRP: Setting up the symmetry group for a 
 face centered cubic supercell.


 Subroutine GETGRP returns: Found 48 space group operations
 (whereof 48 operations were pure point group operations)
 out of a pool of 48 trial point group operations.


The dynamic configuration has the point symmetry O_h .


 Subroutine INISYM returns: Found 48 space group operations
 (whereof 48 operations are pure point group operations),
 and found     1 'primitive' translations



--------------------------------------------------------------------------------------------------------




 MACROSCOPIC STATIC DIELECTRIC TENSOR (including local field effects in DFT)
 ------------------------------------------------------
           2.485855     0.000000     0.000000
           0.000000     2.485855     0.000000
          -0.000000    -0.000000     2.485855
 ------------------------------------------------------


 PIEZOELECTRIC TENSOR (including local field effects)  for field in x, y, z        (e  Angst)
          XX          YY          ZZ          XY          YZ          ZX
  --------------------------------------------------------------------------------
  x     0.00031    -0.00018    -0.00018    -0.00000    -0.00000     0.00000
  y    -0.00007    -0.00016    -0.00007    -0.00000     0.00000    -0.00000
  z    -0.00007    -0.00007    -0.00015    -0.00000     0.00000     0.00000

 PIEZOELECTRIC TENSOR (including local field effects)  for field in x, y, z        (C/m^2)
          XX          YY          ZZ          XY          YZ          ZX
  --------------------------------------------------------------------------------
  x     0.00000     0.00000     0.00000     0.00000     0.00000     0.00000
  y     0.00000     0.00000     0.00000     0.00000     0.00000     0.00000
  z     0.00000     0.00000     0.00000     0.00000     0.00000     0.00000

 BORN EFFECTIVE CHARGES (including local field effects) (in e, cummulative output)
 ---------------------------------------------------------------------------------
 ion    1
    1     1.13999    -0.00000    -0.00000
    2    -0.00000     1.13998    -0.00000
    3    -0.00000    -0.00000     1.13999
 ion    2
    1    -1.13999    -0.00000    -0.00000
    2    -0.00000    -1.13998    -0.00000
    3    -0.00000    -0.00000    -1.13999

 INTERNAL STRAIN TENSOR FOR ION    1 for displacements in x,y,z  (eV/Angst):
          X           Y           Z          XY          YZ          ZX
  --------------------------------------------------------------------------------
  x     0.00000     0.00000     0.00000     0.00000     0.00000     0.00000
  y     0.00000     0.00000     0.00000     0.00000     0.00000     0.00000
  z     0.00000     0.00000     0.00000     0.00000     0.00000     0.00000

 INTERNAL STRAIN TENSOR FOR ION    2 for displacements in x,y,z  (eV/Angst):
          X           Y           Z          XY          YZ          ZX
  --------------------------------------------------------------------------------
  x     0.00000     0.00000     0.00000     0.00000     0.00000     0.00000
  y     0.00000     0.00000     0.00000     0.00000     0.00000     0.00000
  z     0.00000     0.00000     0.00000     0.00000     0.00000     0.00000


--------------------------------------------------------------------------------------------------------



 SECOND DERIVATIVES (NOT SYMMETRIZED)
 ------------------------------------
               1X          1Y          1Z          2X          2Y          2Z 
  1X    -0.984210    0.000000    0.000000    0.984210    0.000000    0.000000
  1Y     0.000000   -0.984210    0.000000    0.000000    0.984210    0.000000
  1Z     0.000000    0.000000   -0.984210    0.000000    0.000000    0.984210
  2X     0.996020    0.000000    0.000000   -0.996020    0.000000    0.000000
  2Y     0.000000    0.996020    0.000000    0.000000   -0.996020    0.000000
  2Z     0.000000    0.000000    0.996020    0.000000    0.000000   -0.996020


 Eigenvectors and eigenvalues of the dynamical matrix
 ----------------------------------------------------


   1 f  =    3.032958 THz    19.056636 2PiTHz  101.168582 cm-1    12.543310 meV
             X         Y         Z           dx          dy          dz
      0.000000  0.000000  0.000000     0.000000    0.817809    0.000000  
      3.366916  3.366916  3.366916    -0.000000   -0.575490    0.000000  

   2 f  =    3.032958 THz    19.056636 2PiTHz  101.168582 cm-1    12.543310 meV
             X         Y         Z           dx          dy          dz
      0.000000  0.000000  0.000000     0.000000    0.000000    0.817809  
      3.366916  3.366916  3.366916     0.000000   -0.000000   -0.575490  

   3 f  =    3.032958 THz    19.056636 2PiTHz  101.168582 cm-1    12.543310 meV
             X         Y         Z           dx          dy          dz
      0.000000  0.000000  0.000000     0.817809   -0.000000    0.000000  
      3.366916  3.366916  3.366916    -0.575490    0.000000    0.000000  

   4 f/i=    0.008513 THz     0.053491 2PiTHz    0.283973 cm-1     0.035208 meV
             X         Y         Z           dx          dy          dz
      0.000000  0.000000  0.000000     0.350506    0.456437   -0.000000  
      3.366916  3.366916  3.366916     0.498091    0.648627   -0.000000  

   5 f/i=    0.008513 THz     0.053491 2PiTHz    0.283973 cm-1     0.035208 meV
             X         Y         Z           dx          dy          dz
      0.000000  0.000000  0.000000    -0.000000   -0.000000   -0.575490  
      3.366916  3.366916  3.366916    -0.000000    0.000000   -0.817809  

   6 f/i=    0.008513 THz     0.053491 2PiTHz    0.283973 cm-1     0.035208 meV
             X         Y         Z           dx          dy          dz
      0.000000  0.000000  0.000000    -0.456437    0.350506    0.000000  
      3.366916  3.366916  3.366916    -0.648627    0.498091    0.000000  



--------------------------------------------------------------------------------------------------------




 MACROSCOPIC STATIC DIELECTRIC TENSOR IONIC CONTRIBUTION
 ------------------------------------------------------
           3.111321     0.000000     0.000000
           0.000000     3.111271     0.000000
           0.000000     0.000000     3.111320
 ------------------------------------------------------


 ELASTIC MODULI CONTR FROM IONIC RELAXATION (kBar)
 Direction    XX          YY          ZZ          XY          YZ          ZX
 --------------------------------------------------------------------------------
 XX           0.0000      0.0000      0.0000      0.0000      0.0000      0.0000
 YY           0.0000      0.0000      0.0000      0.0000      0.0000      0.0000
 ZZ           0.0000      0.0000      0.0000      0.0000      0.0000      0.0000
 XY           0.0000      0.0000      0.0000      0.0000      0.0000      0.0000
 YZ           0.0000      0.0000      0.0000      0.0000      0.0000      0.0000
 ZX           0.0000      0.0000      0.0000      0.0000      0.0000      0.0000
 --------------------------------------------------------------------------------


 PIEZOELECTRIC TENSOR IONIC CONTR  for field in x, y, z        (C/m^2)
          XX          YY          ZZ          XY          YZ          ZX
  --------------------------------------------------------------------------------
  x     0.00000     0.00000     0.00000     0.00000     0.00000     0.00000
  y     0.00000     0.00000     0.00000     0.00000     0.00000     0.00000
  z     0.00000     0.00000     0.00000     0.00000     0.00000     0.00000


--------------------------------------------------------------------------------------------------------


 writing wavefunctions
     LOOP+:  cpu time  157.9589: real time  165.2189
    4ORBIT:  cpu time    0.0000: real time    0.0000
 BZINTS: Fermi energy: -2.935190; 14.000000 electrons
         Band energy:-137.418153;  BLOECHL correction:  0.000000

 total amount of memory used by VASP MPI-rank0    44300. kBytes
=======================================================================

   base      :      30000. kBytes
   nonl-proj :       7487. kBytes
   fftplans  :       1619. kBytes
   grid      :       3411. kBytes
   one-center:         16. kBytes
   wavefun   :       1767. kBytes

  
  
 General timing and accounting informations for this job:
 ========================================================
  
                  Total CPU time used (sec):      159.087
                            User time (sec):      157.366
                          System time (sec):        1.721
                         Elapsed time (sec):      166.701
  
                   Maximum memory used (kb):      100904.
                   Average memory used (kb):           0.
  
                          Minor page faults:        79082
                          Major page faults:            5
                 Voluntary context switches:         1473
